V -t * -v 1.0a5 -a 0
A -t * -n 1 -p 0 -o 0xffffffff -c 31 -a 1
A -t * -h 1 -m 2147483647 -s 0
c -t * -i 1 -n Red
c -t * -i 2 -n Blue
n -t * -a 4 -s 4 -S UP -v circle -c black -i black
n -t * -a 0 -s 0 -S UP -v circle -c black -i black
n -t * -a 5 -s 5 -S UP -v circle -c black -i black
n -t * -a 1 -s 1 -S UP -v circle -c black -i black
n -t * -a 2 -s 2 -S UP -v circle -c black -i black
n -t * -a 3 -s 3 -S UP -v circle -c black -i black
l -t * -s 0 -d 2 -S UP -r 5000000 -D 0.0030000000000000001 -c black -o right-down
l -t * -s 1 -d 2 -S UP -r 5000000 -D 0.0030000000000000001 -c black -o right-up
l -t * -s 2 -d 3 -S UP -r 2000000 -D 0.01 -c black -o right
l -t * -s 4 -d 3 -S UP -r 5000000 -D 0.0030000000000000001 -c black -o left-down
l -t * -s 5 -d 3 -S UP -r 5000000 -D 0.0030000000000000001 -c black -o left-up
q -t * -s 3 -d 2 -a 0.5
q -t * -s 2 -d 3 -a 0.5
+ -t 0 -s 1 -d 2 -p tcp -e 40 -c 2 -i 0 -a 2 -x {1.0 5.0 0 ------- null}
- -t 0 -s 1 -d 2 -p tcp -e 40 -c 2 -i 0 -a 2 -x {1.0 5.0 0 ------- null}
h -t 0 -s 1 -d 2 -p tcp -e 40 -c 2 -i 0 -a 2 -x {1.0 5.0 -1 ------- null}
r -t 0.003064 -s 1 -d 2 -p tcp -e 40 -c 2 -i 0 -a 2 -x {1.0 5.0 0 ------- null}
+ -t 0.003064 -s 2 -d 3 -p tcp -e 40 -c 2 -i 0 -a 2 -x {1.0 5.0 0 ------- null}
- -t 0.003064 -s 2 -d 3 -p tcp -e 40 -c 2 -i 0 -a 2 -x {1.0 5.0 0 ------- null}
h -t 0.003064 -s 2 -d 3 -p tcp -e 40 -c 2 -i 0 -a 2 -x {1.0 5.0 -1 ------- null}
r -t 0.013224 -s 2 -d 3 -p tcp -e 40 -c 2 -i 0 -a 2 -x {1.0 5.0 0 ------- null}
+ -t 0.013224 -s 3 -d 5 -p tcp -e 40 -c 2 -i 0 -a 2 -x {1.0 5.0 0 ------- null}
- -t 0.013224 -s 3 -d 5 -p tcp -e 40 -c 2 -i 0 -a 2 -x {1.0 5.0 0 ------- null}
h -t 0.013224 -s 3 -d 5 -p tcp -e 40 -c 2 -i 0 -a 2 -x {1.0 5.0 -1 ------- null}
r -t 0.016288 -s 3 -d 5 -p tcp -e 40 -c 2 -i 0 -a 2 -x {1.0 5.0 0 ------- null}
+ -t 0.016288 -s 5 -d 3 -p ack -e 40 -c 2 -i 1 -a 2 -x {5.0 1.0 0 ------- null}
- -t 0.016288 -s 5 -d 3 -p ack -e 40 -c 2 -i 1 -a 2 -x {5.0 1.0 0 ------- null}
h -t 0.016288 -s 5 -d 3 -p ack -e 40 -c 2 -i 1 -a 2 -x {5.0 1.0 -1 ------- null}
r -t 0.019352 -s 5 -d 3 -p ack -e 40 -c 2 -i 1 -a 2 -x {5.0 1.0 0 ------- null}
+ -t 0.019352 -s 3 -d 2 -p ack -e 40 -c 2 -i 1 -a 2 -x {5.0 1.0 0 ------- null}
- -t 0.019352 -s 3 -d 2 -p ack -e 40 -c 2 -i 1 -a 2 -x {5.0 1.0 0 ------- null}
h -t 0.019352 -s 3 -d 2 -p ack -e 40 -c 2 -i 1 -a 2 -x {5.0 1.0 -1 ------- null}
r -t 0.029512 -s 3 -d 2 -p ack -e 40 -c 2 -i 1 -a 2 -x {5.0 1.0 0 ------- null}
+ -t 0.029512 -s 2 -d 1 -p ack -e 40 -c 2 -i 1 -a 2 -x {5.0 1.0 0 ------- null}
- -t 0.029512 -s 2 -d 1 -p ack -e 40 -c 2 -i 1 -a 2 -x {5.0 1.0 0 ------- null}
h -t 0.029512 -s 2 -d 1 -p ack -e 40 -c 2 -i 1 -a 2 -x {5.0 1.0 -1 ------- null}
r -t 0.032576 -s 2 -d 1 -p ack -e 40 -c 2 -i 1 -a 2 -x {5.0 1.0 0 ------- null}
+ -t 0.032576 -s 1 -d 2 -p tcp -e 1040 -c 2 -i 2 -a 2 -x {1.0 5.0 1 ------- null}
- -t 0.032576 -s 1 -d 2 -p tcp -e 1040 -c 2 -i 2 -a 2 -x {1.0 5.0 1 ------- null}
h -t 0.032576 -s 1 -d 2 -p tcp -e 1040 -c 2 -i 2 -a 2 -x {1.0 5.0 -1 ------- null}
+ -t 0.032576 -s 1 -d 2 -p tcp -e 1040 -c 2 -i 3 -a 2 -x {1.0 5.0 2 ------- null}
- -t 0.03424 -s 1 -d 2 -p tcp -e 1040 -c 2 -i 3 -a 2 -x {1.0 5.0 2 ------- null}
h -t 0.03424 -s 1 -d 2 -p tcp -e 1040 -c 2 -i 3 -a 2 -x {1.0 5.0 -1 ------- null}
r -t 0.03724 -s 1 -d 2 -p tcp -e 1040 -c 2 -i 2 -a 2 -x {1.0 5.0 1 ------- null}
+ -t 0.03724 -s 2 -d 3 -p tcp -e 1040 -c 2 -i 2 -a 2 -x {1.0 5.0 1 ------- null}
- -t 0.03724 -s 2 -d 3 -p tcp -e 1040 -c 2 -i 2 -a 2 -x {1.0 5.0 1 ------- null}
h -t 0.03724 -s 2 -d 3 -p tcp -e 1040 -c 2 -i 2 -a 2 -x {1.0 5.0 -1 ------- null}
r -t 0.038904 -s 1 -d 2 -p tcp -e 1040 -c 2 -i 3 -a 2 -x {1.0 5.0 2 ------- null}
+ -t 0.038904 -s 2 -d 3 -p tcp -e 1040 -c 2 -i 3 -a 2 -x {1.0 5.0 2 ------- null}
- -t 0.0414 -s 2 -d 3 -p tcp -e 1040 -c 2 -i 3 -a 2 -x {1.0 5.0 2 ------- null}
h -t 0.0414 -s 2 -d 3 -p tcp -e 1040 -c 2 -i 3 -a 2 -x {1.0 5.0 -1 ------- null}
r -t 0.0514 -s 2 -d 3 -p tcp -e 1040 -c 2 -i 2 -a 2 -x {1.0 5.0 1 ------- null}
+ -t 0.0514 -s 3 -d 5 -p tcp -e 1040 -c 2 -i 2 -a 2 -x {1.0 5.0 1 ------- null}
- -t 0.0514 -s 3 -d 5 -p tcp -e 1040 -c 2 -i 2 -a 2 -x {1.0 5.0 1 ------- null}
h -t 0.0514 -s 3 -d 5 -p tcp -e 1040 -c 2 -i 2 -a 2 -x {1.0 5.0 -1 ------- null}
r -t 0.05556 -s 2 -d 3 -p tcp -e 1040 -c 2 -i 3 -a 2 -x {1.0 5.0 2 ------- null}
+ -t 0.05556 -s 3 -d 5 -p tcp -e 1040 -c 2 -i 3 -a 2 -x {1.0 5.0 2 ------- null}
- -t 0.05556 -s 3 -d 5 -p tcp -e 1040 -c 2 -i 3 -a 2 -x {1.0 5.0 2 ------- null}
h -t 0.05556 -s 3 -d 5 -p tcp -e 1040 -c 2 -i 3 -a 2 -x {1.0 5.0 -1 ------- null}
r -t 0.056064 -s 3 -d 5 -p tcp -e 1040 -c 2 -i 2 -a 2 -x {1.0 5.0 1 ------- null}
+ -t 0.056064 -s 5 -d 3 -p ack -e 40 -c 2 -i 4 -a 2 -x {5.0 1.0 1 ------- null}
- -t 0.056064 -s 5 -d 3 -p ack -e 40 -c 2 -i 4 -a 2 -x {5.0 1.0 1 ------- null}
h -t 0.056064 -s 5 -d 3 -p ack -e 40 -c 2 -i 4 -a 2 -x {5.0 1.0 -1 ------- null}
r -t 0.059128 -s 5 -d 3 -p ack -e 40 -c 2 -i 4 -a 2 -x {5.0 1.0 1 ------- null}
+ -t 0.059128 -s 3 -d 2 -p ack -e 40 -c 2 -i 4 -a 2 -x {5.0 1.0 1 ------- null}
- -t 0.059128 -s 3 -d 2 -p ack -e 40 -c 2 -i 4 -a 2 -x {5.0 1.0 1 ------- null}
h -t 0.059128 -s 3 -d 2 -p ack -e 40 -c 2 -i 4 -a 2 -x {5.0 1.0 -1 ------- null}
r -t 0.060224 -s 3 -d 5 -p tcp -e 1040 -c 2 -i 3 -a 2 -x {1.0 5.0 2 ------- null}
+ -t 0.060224 -s 5 -d 3 -p ack -e 40 -c 2 -i 5 -a 2 -x {5.0 1.0 2 ------- null}
- -t 0.060224 -s 5 -d 3 -p ack -e 40 -c 2 -i 5 -a 2 -x {5.0 1.0 2 ------- null}
h -t 0.060224 -s 5 -d 3 -p ack -e 40 -c 2 -i 5 -a 2 -x {5.0 1.0 -1 ------- null}
r -t 0.063288 -s 5 -d 3 -p ack -e 40 -c 2 -i 5 -a 2 -x {5.0 1.0 2 ------- null}
+ -t 0.063288 -s 3 -d 2 -p ack -e 40 -c 2 -i 5 -a 2 -x {5.0 1.0 2 ------- null}
- -t 0.063288 -s 3 -d 2 -p ack -e 40 -c 2 -i 5 -a 2 -x {5.0 1.0 2 ------- null}
h -t 0.063288 -s 3 -d 2 -p ack -e 40 -c 2 -i 5 -a 2 -x {5.0 1.0 -1 ------- null}
r -t 0.069288 -s 3 -d 2 -p ack -e 40 -c 2 -i 4 -a 2 -x {5.0 1.0 1 ------- null}
+ -t 0.069288 -s 2 -d 1 -p ack -e 40 -c 2 -i 4 -a 2 -x {5.0 1.0 1 ------- null}
- -t 0.069288 -s 2 -d 1 -p ack -e 40 -c 2 -i 4 -a 2 -x {5.0 1.0 1 ------- null}
h -t 0.069288 -s 2 -d 1 -p ack -e 40 -c 2 -i 4 -a 2 -x {5.0 1.0 -1 ------- null}
r -t 0.072352 -s 2 -d 1 -p ack -e 40 -c 2 -i 4 -a 2 -x {5.0 1.0 1 ------- null}
+ -t 0.072352 -s 1 -d 2 -p tcp -e 1040 -c 2 -i 6 -a 2 -x {1.0 5.0 3 ------- null}
- -t 0.072352 -s 1 -d 2 -p tcp -e 1040 -c 2 -i 6 -a 2 -x {1.0 5.0 3 ------- null}
h -t 0.072352 -s 1 -d 2 -p tcp -e 1040 -c 2 -i 6 -a 2 -x {1.0 5.0 -1 ------- null}
+ -t 0.072352 -s 1 -d 2 -p tcp -e 1040 -c 2 -i 7 -a 2 -x {1.0 5.0 4 ------- null}
r -t 0.073448 -s 3 -d 2 -p ack -e 40 -c 2 -i 5 -a 2 -x {5.0 1.0 2 ------- null}
+ -t 0.073448 -s 2 -d 1 -p ack -e 40 -c 2 -i 5 -a 2 -x {5.0 1.0 2 ------- null}
- -t 0.073448 -s 2 -d 1 -p ack -e 40 -c 2 -i 5 -a 2 -x {5.0 1.0 2 ------- null}
h -t 0.073448 -s 2 -d 1 -p ack -e 40 -c 2 -i 5 -a 2 -x {5.0 1.0 -1 ------- null}
- -t 0.074016 -s 1 -d 2 -p tcp -e 1040 -c 2 -i 7 -a 2 -x {1.0 5.0 4 ------- null}
h -t 0.074016 -s 1 -d 2 -p tcp -e 1040 -c 2 -i 7 -a 2 -x {1.0 5.0 -1 ------- null}
r -t 0.076512 -s 2 -d 1 -p ack -e 40 -c 2 -i 5 -a 2 -x {5.0 1.0 2 ------- null}
+ -t 0.076512 -s 1 -d 2 -p tcp -e 1040 -c 2 -i 8 -a 2 -x {1.0 5.0 5 ------- null}
- -t 0.076512 -s 1 -d 2 -p tcp -e 1040 -c 2 -i 8 -a 2 -x {1.0 5.0 5 ------- null}
h -t 0.076512 -s 1 -d 2 -p tcp -e 1040 -c 2 -i 8 -a 2 -x {1.0 5.0 -1 ------- null}
+ -t 0.076512 -s 1 -d 2 -p tcp -e 1040 -c 2 -i 9 -a 2 -x {1.0 5.0 6 ------- null}
r -t 0.077016 -s 1 -d 2 -p tcp -e 1040 -c 2 -i 6 -a 2 -x {1.0 5.0 3 ------- null}
+ -t 0.077016 -s 2 -d 3 -p tcp -e 1040 -c 2 -i 6 -a 2 -x {1.0 5.0 3 ------- null}
- -t 0.077016 -s 2 -d 3 -p tcp -e 1040 -c 2 -i 6 -a 2 -x {1.0 5.0 3 ------- null}
h -t 0.077016 -s 2 -d 3 -p tcp -e 1040 -c 2 -i 6 -a 2 -x {1.0 5.0 -1 ------- null}
- -t 0.078176 -s 1 -d 2 -p tcp -e 1040 -c 2 -i 9 -a 2 -x {1.0 5.0 6 ------- null}
h -t 0.078176 -s 1 -d 2 -p tcp -e 1040 -c 2 -i 9 -a 2 -x {1.0 5.0 -1 ------- null}
r -t 0.07868 -s 1 -d 2 -p tcp -e 1040 -c 2 -i 7 -a 2 -x {1.0 5.0 4 ------- null}
+ -t 0.07868 -s 2 -d 3 -p tcp -e 1040 -c 2 -i 7 -a 2 -x {1.0 5.0 4 ------- null}
r -t 0.081176 -s 1 -d 2 -p tcp -e 1040 -c 2 -i 8 -a 2 -x {1.0 5.0 5 ------- null}
+ -t 0.081176 -s 2 -d 3 -p tcp -e 1040 -c 2 -i 8 -a 2 -x {1.0 5.0 5 ------- null}
- -t 0.081176 -s 2 -d 3 -p tcp -e 1040 -c 2 -i 7 -a 2 -x {1.0 5.0 4 ------- null}
h -t 0.081176 -s 2 -d 3 -p tcp -e 1040 -c 2 -i 7 -a 2 -x {1.0 5.0 -1 ------- null}
r -t 0.08284 -s 1 -d 2 -p tcp -e 1040 -c 2 -i 9 -a 2 -x {1.0 5.0 6 ------- null}
+ -t 0.08284 -s 2 -d 3 -p tcp -e 1040 -c 2 -i 9 -a 2 -x {1.0 5.0 6 ------- null}
- -t 0.085336 -s 2 -d 3 -p tcp -e 1040 -c 2 -i 8 -a 2 -x {1.0 5.0 5 ------- null}
h -t 0.085336 -s 2 -d 3 -p tcp -e 1040 -c 2 -i 8 -a 2 -x {1.0 5.0 -1 ------- null}
- -t 0.089496 -s 2 -d 3 -p tcp -e 1040 -c 2 -i 9 -a 2 -x {1.0 5.0 6 ------- null}
h -t 0.089496 -s 2 -d 3 -p tcp -e 1040 -c 2 -i 9 -a 2 -x {1.0 5.0 -1 ------- null}
r -t 0.091176 -s 2 -d 3 -p tcp -e 1040 -c 2 -i 6 -a 2 -x {1.0 5.0 3 ------- null}
+ -t 0.091176 -s 3 -d 5 -p tcp -e 1040 -c 2 -i 6 -a 2 -x {1.0 5.0 3 ------- null}
- -t 0.091176 -s 3 -d 5 -p tcp -e 1040 -c 2 -i 6 -a 2 -x {1.0 5.0 3 ------- null}
h -t 0.091176 -s 3 -d 5 -p tcp -e 1040 -c 2 -i 6 -a 2 -x {1.0 5.0 -1 ------- null}
r -t 0.095336 -s 2 -d 3 -p tcp -e 1040 -c 2 -i 7 -a 2 -x {1.0 5.0 4 ------- null}
+ -t 0.095336 -s 3 -d 5 -p tcp -e 1040 -c 2 -i 7 -a 2 -x {1.0 5.0 4 ------- null}
- -t 0.095336 -s 3 -d 5 -p tcp -e 1040 -c 2 -i 7 -a 2 -x {1.0 5.0 4 ------- null}
h -t 0.095336 -s 3 -d 5 -p tcp -e 1040 -c 2 -i 7 -a 2 -x {1.0 5.0 -1 ------- null}
r -t 0.09584 -s 3 -d 5 -p tcp -e 1040 -c 2 -i 6 -a 2 -x {1.0 5.0 3 ------- null}
+ -t 0.09584 -s 5 -d 3 -p ack -e 40 -c 2 -i 10 -a 2 -x {5.0 1.0 3 ------- null}
- -t 0.09584 -s 5 -d 3 -p ack -e 40 -c 2 -i 10 -a 2 -x {5.0 1.0 3 ------- null}
h -t 0.09584 -s 5 -d 3 -p ack -e 40 -c 2 -i 10 -a 2 -x {5.0 1.0 -1 ------- null}
r -t 0.098904 -s 5 -d 3 -p ack -e 40 -c 2 -i 10 -a 2 -x {5.0 1.0 3 ------- null}
+ -t 0.098904 -s 3 -d 2 -p ack -e 40 -c 2 -i 10 -a 2 -x {5.0 1.0 3 ------- null}
- -t 0.098904 -s 3 -d 2 -p ack -e 40 -c 2 -i 10 -a 2 -x {5.0 1.0 3 ------- null}
h -t 0.098904 -s 3 -d 2 -p ack -e 40 -c 2 -i 10 -a 2 -x {5.0 1.0 -1 ------- null}
r -t 0.099496 -s 2 -d 3 -p tcp -e 1040 -c 2 -i 8 -a 2 -x {1.0 5.0 5 ------- null}
+ -t 0.099496 -s 3 -d 5 -p tcp -e 1040 -c 2 -i 8 -a 2 -x {1.0 5.0 5 ------- null}
- -t 0.099496 -s 3 -d 5 -p tcp -e 1040 -c 2 -i 8 -a 2 -x {1.0 5.0 5 ------- null}
h -t 0.099496 -s 3 -d 5 -p tcp -e 1040 -c 2 -i 8 -a 2 -x {1.0 5.0 -1 ------- null}
r -t 0.1 -s 3 -d 5 -p tcp -e 1040 -c 2 -i 7 -a 2 -x {1.0 5.0 4 ------- null}
+ -t 0.1 -s 5 -d 3 -p ack -e 40 -c 2 -i 11 -a 2 -x {5.0 1.0 4 ------- null}
- -t 0.1 -s 5 -d 3 -p ack -e 40 -c 2 -i 11 -a 2 -x {5.0 1.0 4 ------- null}
h -t 0.1 -s 5 -d 3 -p ack -e 40 -c 2 -i 11 -a 2 -x {5.0 1.0 -1 ------- null}
r -t 0.103064 -s 5 -d 3 -p ack -e 40 -c 2 -i 11 -a 2 -x {5.0 1.0 4 ------- null}
+ -t 0.103064 -s 3 -d 2 -p ack -e 40 -c 2 -i 11 -a 2 -x {5.0 1.0 4 ------- null}
- -t 0.103064 -s 3 -d 2 -p ack -e 40 -c 2 -i 11 -a 2 -x {5.0 1.0 4 ------- null}
h -t 0.103064 -s 3 -d 2 -p ack -e 40 -c 2 -i 11 -a 2 -x {5.0 1.0 -1 ------- null}
r -t 0.103656 -s 2 -d 3 -p tcp -e 1040 -c 2 -i 9 -a 2 -x {1.0 5.0 6 ------- null}
+ -t 0.103656 -s 3 -d 5 -p tcp -e 1040 -c 2 -i 9 -a 2 -x {1.0 5.0 6 ------- null}
- -t 0.103656 -s 3 -d 5 -p tcp -e 1040 -c 2 -i 9 -a 2 -x {1.0 5.0 6 ------- null}
h -t 0.103656 -s 3 -d 5 -p tcp -e 1040 -c 2 -i 9 -a 2 -x {1.0 5.0 -1 ------- null}
r -t 0.10416 -s 3 -d 5 -p tcp -e 1040 -c 2 -i 8 -a 2 -x {1.0 5.0 5 ------- null}
+ -t 0.10416 -s 5 -d 3 -p ack -e 40 -c 2 -i 12 -a 2 -x {5.0 1.0 5 ------- null}
- -t 0.10416 -s 5 -d 3 -p ack -e 40 -c 2 -i 12 -a 2 -x {5.0 1.0 5 ------- null}
h -t 0.10416 -s 5 -d 3 -p ack -e 40 -c 2 -i 12 -a 2 -x {5.0 1.0 -1 ------- null}
r -t 0.107224 -s 5 -d 3 -p ack -e 40 -c 2 -i 12 -a 2 -x {5.0 1.0 5 ------- null}
+ -t 0.107224 -s 3 -d 2 -p ack -e 40 -c 2 -i 12 -a 2 -x {5.0 1.0 5 ------- null}
- -t 0.107224 -s 3 -d 2 -p ack -e 40 -c 2 -i 12 -a 2 -x {5.0 1.0 5 ------- null}
h -t 0.107224 -s 3 -d 2 -p ack -e 40 -c 2 -i 12 -a 2 -x {5.0 1.0 -1 ------- null}
r -t 0.10832 -s 3 -d 5 -p tcp -e 1040 -c 2 -i 9 -a 2 -x {1.0 5.0 6 ------- null}
+ -t 0.10832 -s 5 -d 3 -p ack -e 40 -c 2 -i 13 -a 2 -x {5.0 1.0 6 ------- null}
- -t 0.10832 -s 5 -d 3 -p ack -e 40 -c 2 -i 13 -a 2 -x {5.0 1.0 6 ------- null}
h -t 0.10832 -s 5 -d 3 -p ack -e 40 -c 2 -i 13 -a 2 -x {5.0 1.0 -1 ------- null}
r -t 0.109064 -s 3 -d 2 -p ack -e 40 -c 2 -i 10 -a 2 -x {5.0 1.0 3 ------- null}
+ -t 0.109064 -s 2 -d 1 -p ack -e 40 -c 2 -i 10 -a 2 -x {5.0 1.0 3 ------- null}
- -t 0.109064 -s 2 -d 1 -p ack -e 40 -c 2 -i 10 -a 2 -x {5.0 1.0 3 ------- null}
h -t 0.109064 -s 2 -d 1 -p ack -e 40 -c 2 -i 10 -a 2 -x {5.0 1.0 -1 ------- null}
r -t 0.111384 -s 5 -d 3 -p ack -e 40 -c 2 -i 13 -a 2 -x {5.0 1.0 6 ------- null}
+ -t 0.111384 -s 3 -d 2 -p ack -e 40 -c 2 -i 13 -a 2 -x {5.0 1.0 6 ------- null}
- -t 0.111384 -s 3 -d 2 -p ack -e 40 -c 2 -i 13 -a 2 -x {5.0 1.0 6 ------- null}
h -t 0.111384 -s 3 -d 2 -p ack -e 40 -c 2 -i 13 -a 2 -x {5.0 1.0 -1 ------- null}
r -t 0.112128 -s 2 -d 1 -p ack -e 40 -c 2 -i 10 -a 2 -x {5.0 1.0 3 ------- null}
+ -t 0.112128 -s 1 -d 2 -p tcp -e 1040 -c 2 -i 14 -a 2 -x {1.0 5.0 7 ------- null}
- -t 0.112128 -s 1 -d 2 -p tcp -e 1040 -c 2 -i 14 -a 2 -x {1.0 5.0 7 ------- null}
h -t 0.112128 -s 1 -d 2 -p tcp -e 1040 -c 2 -i 14 -a 2 -x {1.0 5.0 -1 ------- null}
+ -t 0.112128 -s 1 -d 2 -p tcp -e 1040 -c 2 -i 15 -a 2 -x {1.0 5.0 8 ------- null}
r -t 0.113224 -s 3 -d 2 -p ack -e 40 -c 2 -i 11 -a 2 -x {5.0 1.0 4 ------- null}
+ -t 0.113224 -s 2 -d 1 -p ack -e 40 -c 2 -i 11 -a 2 -x {5.0 1.0 4 ------- null}
- -t 0.113224 -s 2 -d 1 -p ack -e 40 -c 2 -i 11 -a 2 -x {5.0 1.0 4 ------- null}
h -t 0.113224 -s 2 -d 1 -p ack -e 40 -c 2 -i 11 -a 2 -x {5.0 1.0 -1 ------- null}
- -t 0.113792 -s 1 -d 2 -p tcp -e 1040 -c 2 -i 15 -a 2 -x {1.0 5.0 8 ------- null}
h -t 0.113792 -s 1 -d 2 -p tcp -e 1040 -c 2 -i 15 -a 2 -x {1.0 5.0 -1 ------- null}
r -t 0.116288 -s 2 -d 1 -p ack -e 40 -c 2 -i 11 -a 2 -x {5.0 1.0 4 ------- null}
+ -t 0.116288 -s 1 -d 2 -p tcp -e 1040 -c 2 -i 16 -a 2 -x {1.0 5.0 9 ------- null}
- -t 0.116288 -s 1 -d 2 -p tcp -e 1040 -c 2 -i 16 -a 2 -x {1.0 5.0 9 ------- null}
h -t 0.116288 -s 1 -d 2 -p tcp -e 1040 -c 2 -i 16 -a 2 -x {1.0 5.0 -1 ------- null}
+ -t 0.116288 -s 1 -d 2 -p tcp -e 1040 -c 2 -i 17 -a 2 -x {1.0 5.0 10 ------- null}
r -t 0.116792 -s 1 -d 2 -p tcp -e 1040 -c 2 -i 14 -a 2 -x {1.0 5.0 7 ------- null}
+ -t 0.116792 -s 2 -d 3 -p tcp -e 1040 -c 2 -i 14 -a 2 -x {1.0 5.0 7 ------- null}
- -t 0.116792 -s 2 -d 3 -p tcp -e 1040 -c 2 -i 14 -a 2 -x {1.0 5.0 7 ------- null}
h -t 0.116792 -s 2 -d 3 -p tcp -e 1040 -c 2 -i 14 -a 2 -x {1.0 5.0 -1 ------- null}
r -t 0.117384 -s 3 -d 2 -p ack -e 40 -c 2 -i 12 -a 2 -x {5.0 1.0 5 ------- null}
+ -t 0.117384 -s 2 -d 1 -p ack -e 40 -c 2 -i 12 -a 2 -x {5.0 1.0 5 ------- null}
- -t 0.117384 -s 2 -d 1 -p ack -e 40 -c 2 -i 12 -a 2 -x {5.0 1.0 5 ------- null}
h -t 0.117384 -s 2 -d 1 -p ack -e 40 -c 2 -i 12 -a 2 -x {5.0 1.0 -1 ------- null}
- -t 0.117952 -s 1 -d 2 -p tcp -e 1040 -c 2 -i 17 -a 2 -x {1.0 5.0 10 ------- null}
h -t 0.117952 -s 1 -d 2 -p tcp -e 1040 -c 2 -i 17 -a 2 -x {1.0 5.0 -1 ------- null}
r -t 0.118456 -s 1 -d 2 -p tcp -e 1040 -c 2 -i 15 -a 2 -x {1.0 5.0 8 ------- null}
+ -t 0.118456 -s 2 -d 3 -p tcp -e 1040 -c 2 -i 15 -a 2 -x {1.0 5.0 8 ------- null}
r -t 0.120448 -s 2 -d 1 -p ack -e 40 -c 2 -i 12 -a 2 -x {5.0 1.0 5 ------- null}
+ -t 0.120448 -s 1 -d 2 -p tcp -e 1040 -c 2 -i 18 -a 2 -x {1.0 5.0 11 ------- null}
- -t 0.120448 -s 1 -d 2 -p tcp -e 1040 -c 2 -i 18 -a 2 -x {1.0 5.0 11 ------- null}
h -t 0.120448 -s 1 -d 2 -p tcp -e 1040 -c 2 -i 18 -a 2 -x {1.0 5.0 -1 ------- null}
+ -t 0.120448 -s 1 -d 2 -p tcp -e 1040 -c 2 -i 19 -a 2 -x {1.0 5.0 12 ------- null}
r -t 0.120952 -s 1 -d 2 -p tcp -e 1040 -c 2 -i 16 -a 2 -x {1.0 5.0 9 ------- null}
+ -t 0.120952 -s 2 -d 3 -p tcp -e 1040 -c 2 -i 16 -a 2 -x {1.0 5.0 9 ------- null}
- -t 0.120952 -s 2 -d 3 -p tcp -e 1040 -c 2 -i 15 -a 2 -x {1.0 5.0 8 ------- null}
h -t 0.120952 -s 2 -d 3 -p tcp -e 1040 -c 2 -i 15 -a 2 -x {1.0 5.0 -1 ------- null}
r -t 0.121544 -s 3 -d 2 -p ack -e 40 -c 2 -i 13 -a 2 -x {5.0 1.0 6 ------- null}
+ -t 0.121544 -s 2 -d 1 -p ack -e 40 -c 2 -i 13 -a 2 -x {5.0 1.0 6 ------- null}
- -t 0.121544 -s 2 -d 1 -p ack -e 40 -c 2 -i 13 -a 2 -x {5.0 1.0 6 ------- null}
h -t 0.121544 -s 2 -d 1 -p ack -e 40 -c 2 -i 13 -a 2 -x {5.0 1.0 -1 ------- null}
- -t 0.122112 -s 1 -d 2 -p tcp -e 1040 -c 2 -i 19 -a 2 -x {1.0 5.0 12 ------- null}
h -t 0.122112 -s 1 -d 2 -p tcp -e 1040 -c 2 -i 19 -a 2 -x {1.0 5.0 -1 ------- null}
r -t 0.122616 -s 1 -d 2 -p tcp -e 1040 -c 2 -i 17 -a 2 -x {1.0 5.0 10 ------- null}
+ -t 0.122616 -s 2 -d 3 -p tcp -e 1040 -c 2 -i 17 -a 2 -x {1.0 5.0 10 ------- null}
r -t 0.124608 -s 2 -d 1 -p ack -e 40 -c 2 -i 13 -a 2 -x {5.0 1.0 6 ------- null}
+ -t 0.124608 -s 1 -d 2 -p tcp -e 1040 -c 2 -i 20 -a 2 -x {1.0 5.0 13 ------- null}
- -t 0.124608 -s 1 -d 2 -p tcp -e 1040 -c 2 -i 20 -a 2 -x {1.0 5.0 13 ------- null}
h -t 0.124608 -s 1 -d 2 -p tcp -e 1040 -c 2 -i 20 -a 2 -x {1.0 5.0 -1 ------- null}
+ -t 0.124608 -s 1 -d 2 -p tcp -e 1040 -c 2 -i 21 -a 2 -x {1.0 5.0 14 ------- null}
r -t 0.125112 -s 1 -d 2 -p tcp -e 1040 -c 2 -i 18 -a 2 -x {1.0 5.0 11 ------- null}
+ -t 0.125112 -s 2 -d 3 -p tcp -e 1040 -c 2 -i 18 -a 2 -x {1.0 5.0 11 ------- null}
- -t 0.125112 -s 2 -d 3 -p tcp -e 1040 -c 2 -i 16 -a 2 -x {1.0 5.0 9 ------- null}
h -t 0.125112 -s 2 -d 3 -p tcp -e 1040 -c 2 -i 16 -a 2 -x {1.0 5.0 -1 ------- null}
- -t 0.126272 -s 1 -d 2 -p tcp -e 1040 -c 2 -i 21 -a 2 -x {1.0 5.0 14 ------- null}
h -t 0.126272 -s 1 -d 2 -p tcp -e 1040 -c 2 -i 21 -a 2 -x {1.0 5.0 -1 ------- null}
r -t 0.126776 -s 1 -d 2 -p tcp -e 1040 -c 2 -i 19 -a 2 -x {1.0 5.0 12 ------- null}
+ -t 0.126776 -s 2 -d 3 -p tcp -e 1040 -c 2 -i 19 -a 2 -x {1.0 5.0 12 ------- null}
r -t 0.129272 -s 1 -d 2 -p tcp -e 1040 -c 2 -i 20 -a 2 -x {1.0 5.0 13 ------- null}
+ -t 0.129272 -s 2 -d 3 -p tcp -e 1040 -c 2 -i 20 -a 2 -x {1.0 5.0 13 ------- null}
- -t 0.129272 -s 2 -d 3 -p tcp -e 1040 -c 2 -i 17 -a 2 -x {1.0 5.0 10 ------- null}
h -t 0.129272 -s 2 -d 3 -p tcp -e 1040 -c 2 -i 17 -a 2 -x {1.0 5.0 -1 ------- null}
r -t 0.130936 -s 1 -d 2 -p tcp -e 1040 -c 2 -i 21 -a 2 -x {1.0 5.0 14 ------- null}
+ -t 0.130936 -s 2 -d 3 -p tcp -e 1040 -c 2 -i 21 -a 2 -x {1.0 5.0 14 ------- null}
r -t 0.130952 -s 2 -d 3 -p tcp -e 1040 -c 2 -i 14 -a 2 -x {1.0 5.0 7 ------- null}
+ -t 0.130952 -s 3 -d 5 -p tcp -e 1040 -c 2 -i 14 -a 2 -x {1.0 5.0 7 ------- null}
- -t 0.130952 -s 3 -d 5 -p tcp -e 1040 -c 2 -i 14 -a 2 -x {1.0 5.0 7 ------- null}
h -t 0.130952 -s 3 -d 5 -p tcp -e 1040 -c 2 -i 14 -a 2 -x {1.0 5.0 -1 ------- null}
- -t 0.133432 -s 2 -d 3 -p tcp -e 1040 -c 2 -i 18 -a 2 -x {1.0 5.0 11 ------- null}
h -t 0.133432 -s 2 -d 3 -p tcp -e 1040 -c 2 -i 18 -a 2 -x {1.0 5.0 -1 ------- null}
r -t 0.135112 -s 2 -d 3 -p tcp -e 1040 -c 2 -i 15 -a 2 -x {1.0 5.0 8 ------- null}
+ -t 0.135112 -s 3 -d 5 -p tcp -e 1040 -c 2 -i 15 -a 2 -x {1.0 5.0 8 ------- null}
- -t 0.135112 -s 3 -d 5 -p tcp -e 1040 -c 2 -i 15 -a 2 -x {1.0 5.0 8 ------- null}
h -t 0.135112 -s 3 -d 5 -p tcp -e 1040 -c 2 -i 15 -a 2 -x {1.0 5.0 -1 ------- null}
r -t 0.135616 -s 3 -d 5 -p tcp -e 1040 -c 2 -i 14 -a 2 -x {1.0 5.0 7 ------- null}
+ -t 0.135616 -s 5 -d 3 -p ack -e 40 -c 2 -i 22 -a 2 -x {5.0 1.0 7 ------- null}
- -t 0.135616 -s 5 -d 3 -p ack -e 40 -c 2 -i 22 -a 2 -x {5.0 1.0 7 ------- null}
h -t 0.135616 -s 5 -d 3 -p ack -e 40 -c 2 -i 22 -a 2 -x {5.0 1.0 -1 ------- null}
- -t 0.137592 -s 2 -d 3 -p tcp -e 1040 -c 2 -i 19 -a 2 -x {1.0 5.0 12 ------- null}
h -t 0.137592 -s 2 -d 3 -p tcp -e 1040 -c 2 -i 19 -a 2 -x {1.0 5.0 -1 ------- null}
r -t 0.13868 -s 5 -d 3 -p ack -e 40 -c 2 -i 22 -a 2 -x {5.0 1.0 7 ------- null}
+ -t 0.13868 -s 3 -d 2 -p ack -e 40 -c 2 -i 22 -a 2 -x {5.0 1.0 7 ------- null}
- -t 0.13868 -s 3 -d 2 -p ack -e 40 -c 2 -i 22 -a 2 -x {5.0 1.0 7 ------- null}
h -t 0.13868 -s 3 -d 2 -p ack -e 40 -c 2 -i 22 -a 2 -x {5.0 1.0 -1 ------- null}
r -t 0.139272 -s 2 -d 3 -p tcp -e 1040 -c 2 -i 16 -a 2 -x {1.0 5.0 9 ------- null}
+ -t 0.139272 -s 3 -d 5 -p tcp -e 1040 -c 2 -i 16 -a 2 -x {1.0 5.0 9 ------- null}
- -t 0.139272 -s 3 -d 5 -p tcp -e 1040 -c 2 -i 16 -a 2 -x {1.0 5.0 9 ------- null}
h -t 0.139272 -s 3 -d 5 -p tcp -e 1040 -c 2 -i 16 -a 2 -x {1.0 5.0 -1 ------- null}
r -t 0.139776 -s 3 -d 5 -p tcp -e 1040 -c 2 -i 15 -a 2 -x {1.0 5.0 8 ------- null}
+ -t 0.139776 -s 5 -d 3 -p ack -e 40 -c 2 -i 23 -a 2 -x {5.0 1.0 8 ------- null}
- -t 0.139776 -s 5 -d 3 -p ack -e 40 -c 2 -i 23 -a 2 -x {5.0 1.0 8 ------- null}
h -t 0.139776 -s 5 -d 3 -p ack -e 40 -c 2 -i 23 -a 2 -x {5.0 1.0 -1 ------- null}
- -t 0.141752 -s 2 -d 3 -p tcp -e 1040 -c 2 -i 20 -a 2 -x {1.0 5.0 13 ------- null}
h -t 0.141752 -s 2 -d 3 -p tcp -e 1040 -c 2 -i 20 -a 2 -x {1.0 5.0 -1 ------- null}
r -t 0.14284 -s 5 -d 3 -p ack -e 40 -c 2 -i 23 -a 2 -x {5.0 1.0 8 ------- null}
+ -t 0.14284 -s 3 -d 2 -p ack -e 40 -c 2 -i 23 -a 2 -x {5.0 1.0 8 ------- null}
- -t 0.14284 -s 3 -d 2 -p ack -e 40 -c 2 -i 23 -a 2 -x {5.0 1.0 8 ------- null}
h -t 0.14284 -s 3 -d 2 -p ack -e 40 -c 2 -i 23 -a 2 -x {5.0 1.0 -1 ------- null}
r -t 0.143432 -s 2 -d 3 -p tcp -e 1040 -c 2 -i 17 -a 2 -x {1.0 5.0 10 ------- null}
+ -t 0.143432 -s 3 -d 5 -p tcp -e 1040 -c 2 -i 17 -a 2 -x {1.0 5.0 10 ------- null}
- -t 0.143432 -s 3 -d 5 -p tcp -e 1040 -c 2 -i 17 -a 2 -x {1.0 5.0 10 ------- null}
h -t 0.143432 -s 3 -d 5 -p tcp -e 1040 -c 2 -i 17 -a 2 -x {1.0 5.0 -1 ------- null}
r -t 0.143936 -s 3 -d 5 -p tcp -e 1040 -c 2 -i 16 -a 2 -x {1.0 5.0 9 ------- null}
+ -t 0.143936 -s 5 -d 3 -p ack -e 40 -c 2 -i 24 -a 2 -x {5.0 1.0 9 ------- null}
- -t 0.143936 -s 5 -d 3 -p ack -e 40 -c 2 -i 24 -a 2 -x {5.0 1.0 9 ------- null}
h -t 0.143936 -s 5 -d 3 -p ack -e 40 -c 2 -i 24 -a 2 -x {5.0 1.0 -1 ------- null}
- -t 0.145912 -s 2 -d 3 -p tcp -e 1040 -c 2 -i 21 -a 2 -x {1.0 5.0 14 ------- null}
h -t 0.145912 -s 2 -d 3 -p tcp -e 1040 -c 2 -i 21 -a 2 -x {1.0 5.0 -1 ------- null}
r -t 0.147 -s 5 -d 3 -p ack -e 40 -c 2 -i 24 -a 2 -x {5.0 1.0 9 ------- null}
+ -t 0.147 -s 3 -d 2 -p ack -e 40 -c 2 -i 24 -a 2 -x {5.0 1.0 9 ------- null}
- -t 0.147 -s 3 -d 2 -p ack -e 40 -c 2 -i 24 -a 2 -x {5.0 1.0 9 ------- null}
h -t 0.147 -s 3 -d 2 -p ack -e 40 -c 2 -i 24 -a 2 -x {5.0 1.0 -1 ------- null}
r -t 0.147592 -s 2 -d 3 -p tcp -e 1040 -c 2 -i 18 -a 2 -x {1.0 5.0 11 ------- null}
+ -t 0.147592 -s 3 -d 5 -p tcp -e 1040 -c 2 -i 18 -a 2 -x {1.0 5.0 11 ------- null}
- -t 0.147592 -s 3 -d 5 -p tcp -e 1040 -c 2 -i 18 -a 2 -x {1.0 5.0 11 ------- null}
h -t 0.147592 -s 3 -d 5 -p tcp -e 1040 -c 2 -i 18 -a 2 -x {1.0 5.0 -1 ------- null}
r -t 0.148096 -s 3 -d 5 -p tcp -e 1040 -c 2 -i 17 -a 2 -x {1.0 5.0 10 ------- null}
+ -t 0.148096 -s 5 -d 3 -p ack -e 40 -c 2 -i 25 -a 2 -x {5.0 1.0 10 ------- null}
- -t 0.148096 -s 5 -d 3 -p ack -e 40 -c 2 -i 25 -a 2 -x {5.0 1.0 10 ------- null}
h -t 0.148096 -s 5 -d 3 -p ack -e 40 -c 2 -i 25 -a 2 -x {5.0 1.0 -1 ------- null}
r -t 0.14884 -s 3 -d 2 -p ack -e 40 -c 2 -i 22 -a 2 -x {5.0 1.0 7 ------- null}
+ -t 0.14884 -s 2 -d 1 -p ack -e 40 -c 2 -i 22 -a 2 -x {5.0 1.0 7 ------- null}
- -t 0.14884 -s 2 -d 1 -p ack -e 40 -c 2 -i 22 -a 2 -x {5.0 1.0 7 ------- null}
h -t 0.14884 -s 2 -d 1 -p ack -e 40 -c 2 -i 22 -a 2 -x {5.0 1.0 -1 ------- null}
r -t 0.15116 -s 5 -d 3 -p ack -e 40 -c 2 -i 25 -a 2 -x {5.0 1.0 10 ------- null}
+ -t 0.15116 -s 3 -d 2 -p ack -e 40 -c 2 -i 25 -a 2 -x {5.0 1.0 10 ------- null}
- -t 0.15116 -s 3 -d 2 -p ack -e 40 -c 2 -i 25 -a 2 -x {5.0 1.0 10 ------- null}
h -t 0.15116 -s 3 -d 2 -p ack -e 40 -c 2 -i 25 -a 2 -x {5.0 1.0 -1 ------- null}
r -t 0.151752 -s 2 -d 3 -p tcp -e 1040 -c 2 -i 19 -a 2 -x {1.0 5.0 12 ------- null}
+ -t 0.151752 -s 3 -d 5 -p tcp -e 1040 -c 2 -i 19 -a 2 -x {1.0 5.0 12 ------- null}
- -t 0.151752 -s 3 -d 5 -p tcp -e 1040 -c 2 -i 19 -a 2 -x {1.0 5.0 12 ------- null}
h -t 0.151752 -s 3 -d 5 -p tcp -e 1040 -c 2 -i 19 -a 2 -x {1.0 5.0 -1 ------- null}
r -t 0.151904 -s 2 -d 1 -p ack -e 40 -c 2 -i 22 -a 2 -x {5.0 1.0 7 ------- null}
+ -t 0.151904 -s 1 -d 2 -p tcp -e 1040 -c 2 -i 26 -a 2 -x {1.0 5.0 15 ------- null}
- -t 0.151904 -s 1 -d 2 -p tcp -e 1040 -c 2 -i 26 -a 2 -x {1.0 5.0 15 ------- null}
h -t 0.151904 -s 1 -d 2 -p tcp -e 1040 -c 2 -i 26 -a 2 -x {1.0 5.0 -1 ------- null}
+ -t 0.151904 -s 1 -d 2 -p tcp -e 1040 -c 2 -i 27 -a 2 -x {1.0 5.0 16 ------- null}
r -t 0.152256 -s 3 -d 5 -p tcp -e 1040 -c 2 -i 18 -a 2 -x {1.0 5.0 11 ------- null}
+ -t 0.152256 -s 5 -d 3 -p ack -e 40 -c 2 -i 28 -a 2 -x {5.0 1.0 11 ------- null}
- -t 0.152256 -s 5 -d 3 -p ack -e 40 -c 2 -i 28 -a 2 -x {5.0 1.0 11 ------- null}
h -t 0.152256 -s 5 -d 3 -p ack -e 40 -c 2 -i 28 -a 2 -x {5.0 1.0 -1 ------- null}
r -t 0.153 -s 3 -d 2 -p ack -e 40 -c 2 -i 23 -a 2 -x {5.0 1.0 8 ------- null}
+ -t 0.153 -s 2 -d 1 -p ack -e 40 -c 2 -i 23 -a 2 -x {5.0 1.0 8 ------- null}
- -t 0.153 -s 2 -d 1 -p ack -e 40 -c 2 -i 23 -a 2 -x {5.0 1.0 8 ------- null}
h -t 0.153 -s 2 -d 1 -p ack -e 40 -c 2 -i 23 -a 2 -x {5.0 1.0 -1 ------- null}
- -t 0.153568 -s 1 -d 2 -p tcp -e 1040 -c 2 -i 27 -a 2 -x {1.0 5.0 16 ------- null}
h -t 0.153568 -s 1 -d 2 -p tcp -e 1040 -c 2 -i 27 -a 2 -x {1.0 5.0 -1 ------- null}
r -t 0.15532 -s 5 -d 3 -p ack -e 40 -c 2 -i 28 -a 2 -x {5.0 1.0 11 ------- null}
+ -t 0.15532 -s 3 -d 2 -p ack -e 40 -c 2 -i 28 -a 2 -x {5.0 1.0 11 ------- null}
- -t 0.15532 -s 3 -d 2 -p ack -e 40 -c 2 -i 28 -a 2 -x {5.0 1.0 11 ------- null}
h -t 0.15532 -s 3 -d 2 -p ack -e 40 -c 2 -i 28 -a 2 -x {5.0 1.0 -1 ------- null}
r -t 0.155912 -s 2 -d 3 -p tcp -e 1040 -c 2 -i 20 -a 2 -x {1.0 5.0 13 ------- null}
+ -t 0.155912 -s 3 -d 5 -p tcp -e 1040 -c 2 -i 20 -a 2 -x {1.0 5.0 13 ------- null}
- -t 0.155912 -s 3 -d 5 -p tcp -e 1040 -c 2 -i 20 -a 2 -x {1.0 5.0 13 ------- null}
h -t 0.155912 -s 3 -d 5 -p tcp -e 1040 -c 2 -i 20 -a 2 -x {1.0 5.0 -1 ------- null}
r -t 0.156064 -s 2 -d 1 -p ack -e 40 -c 2 -i 23 -a 2 -x {5.0 1.0 8 ------- null}
+ -t 0.156064 -s 1 -d 2 -p tcp -e 1040 -c 2 -i 29 -a 2 -x {1.0 5.0 17 ------- null}
- -t 0.156064 -s 1 -d 2 -p tcp -e 1040 -c 2 -i 29 -a 2 -x {1.0 5.0 17 ------- null}
h -t 0.156064 -s 1 -d 2 -p tcp -e 1040 -c 2 -i 29 -a 2 -x {1.0 5.0 -1 ------- null}
+ -t 0.156064 -s 1 -d 2 -p tcp -e 1040 -c 2 -i 30 -a 2 -x {1.0 5.0 18 ------- null}
r -t 0.156416 -s 3 -d 5 -p tcp -e 1040 -c 2 -i 19 -a 2 -x {1.0 5.0 12 ------- null}
+ -t 0.156416 -s 5 -d 3 -p ack -e 40 -c 2 -i 31 -a 2 -x {5.0 1.0 12 ------- null}
- -t 0.156416 -s 5 -d 3 -p ack -e 40 -c 2 -i 31 -a 2 -x {5.0 1.0 12 ------- null}
h -t 0.156416 -s 5 -d 3 -p ack -e 40 -c 2 -i 31 -a 2 -x {5.0 1.0 -1 ------- null}
r -t 0.156568 -s 1 -d 2 -p tcp -e 1040 -c 2 -i 26 -a 2 -x {1.0 5.0 15 ------- null}
+ -t 0.156568 -s 2 -d 3 -p tcp -e 1040 -c 2 -i 26 -a 2 -x {1.0 5.0 15 ------- null}
- -t 0.156568 -s 2 -d 3 -p tcp -e 1040 -c 2 -i 26 -a 2 -x {1.0 5.0 15 ------- null}
h -t 0.156568 -s 2 -d 3 -p tcp -e 1040 -c 2 -i 26 -a 2 -x {1.0 5.0 -1 ------- null}
r -t 0.15716 -s 3 -d 2 -p ack -e 40 -c 2 -i 24 -a 2 -x {5.0 1.0 9 ------- null}
+ -t 0.15716 -s 2 -d 1 -p ack -e 40 -c 2 -i 24 -a 2 -x {5.0 1.0 9 ------- null}
- -t 0.15716 -s 2 -d 1 -p ack -e 40 -c 2 -i 24 -a 2 -x {5.0 1.0 9 ------- null}
h -t 0.15716 -s 2 -d 1 -p ack -e 40 -c 2 -i 24 -a 2 -x {5.0 1.0 -1 ------- null}
- -t 0.157728 -s 1 -d 2 -p tcp -e 1040 -c 2 -i 30 -a 2 -x {1.0 5.0 18 ------- null}
h -t 0.157728 -s 1 -d 2 -p tcp -e 1040 -c 2 -i 30 -a 2 -x {1.0 5.0 -1 ------- null}
r -t 0.158232 -s 1 -d 2 -p tcp -e 1040 -c 2 -i 27 -a 2 -x {1.0 5.0 16 ------- null}
+ -t 0.158232 -s 2 -d 3 -p tcp -e 1040 -c 2 -i 27 -a 2 -x {1.0 5.0 16 ------- null}
r -t 0.15948 -s 5 -d 3 -p ack -e 40 -c 2 -i 31 -a 2 -x {5.0 1.0 12 ------- null}
+ -t 0.15948 -s 3 -d 2 -p ack -e 40 -c 2 -i 31 -a 2 -x {5.0 1.0 12 ------- null}
- -t 0.15948 -s 3 -d 2 -p ack -e 40 -c 2 -i 31 -a 2 -x {5.0 1.0 12 ------- null}
h -t 0.15948 -s 3 -d 2 -p ack -e 40 -c 2 -i 31 -a 2 -x {5.0 1.0 -1 ------- null}
r -t 0.160072 -s 2 -d 3 -p tcp -e 1040 -c 2 -i 21 -a 2 -x {1.0 5.0 14 ------- null}
+ -t 0.160072 -s 3 -d 5 -p tcp -e 1040 -c 2 -i 21 -a 2 -x {1.0 5.0 14 ------- null}
- -t 0.160072 -s 3 -d 5 -p tcp -e 1040 -c 2 -i 21 -a 2 -x {1.0 5.0 14 ------- null}
h -t 0.160072 -s 3 -d 5 -p tcp -e 1040 -c 2 -i 21 -a 2 -x {1.0 5.0 -1 ------- null}
r -t 0.160224 -s 2 -d 1 -p ack -e 40 -c 2 -i 24 -a 2 -x {5.0 1.0 9 ------- null}
+ -t 0.160224 -s 1 -d 2 -p tcp -e 1040 -c 2 -i 32 -a 2 -x {1.0 5.0 19 ------- null}
- -t 0.160224 -s 1 -d 2 -p tcp -e 1040 -c 2 -i 32 -a 2 -x {1.0 5.0 19 ------- null}
h -t 0.160224 -s 1 -d 2 -p tcp -e 1040 -c 2 -i 32 -a 2 -x {1.0 5.0 -1 ------- null}
+ -t 0.160224 -s 1 -d 2 -p tcp -e 1040 -c 2 -i 33 -a 2 -x {1.0 5.0 20 ------- null}
r -t 0.160576 -s 3 -d 5 -p tcp -e 1040 -c 2 -i 20 -a 2 -x {1.0 5.0 13 ------- null}
+ -t 0.160576 -s 5 -d 3 -p ack -e 40 -c 2 -i 34 -a 2 -x {5.0 1.0 13 ------- null}
- -t 0.160576 -s 5 -d 3 -p ack -e 40 -c 2 -i 34 -a 2 -x {5.0 1.0 13 ------- null}
h -t 0.160576 -s 5 -d 3 -p ack -e 40 -c 2 -i 34 -a 2 -x {5.0 1.0 -1 ------- null}
r -t 0.160728 -s 1 -d 2 -p tcp -e 1040 -c 2 -i 29 -a 2 -x {1.0 5.0 17 ------- null}
+ -t 0.160728 -s 2 -d 3 -p tcp -e 1040 -c 2 -i 29 -a 2 -x {1.0 5.0 17 ------- null}
- -t 0.160728 -s 2 -d 3 -p tcp -e 1040 -c 2 -i 27 -a 2 -x {1.0 5.0 16 ------- null}
h -t 0.160728 -s 2 -d 3 -p tcp -e 1040 -c 2 -i 27 -a 2 -x {1.0 5.0 -1 ------- null}
r -t 0.16132 -s 3 -d 2 -p ack -e 40 -c 2 -i 25 -a 2 -x {5.0 1.0 10 ------- null}
+ -t 0.16132 -s 2 -d 1 -p ack -e 40 -c 2 -i 25 -a 2 -x {5.0 1.0 10 ------- null}
- -t 0.16132 -s 2 -d 1 -p ack -e 40 -c 2 -i 25 -a 2 -x {5.0 1.0 10 ------- null}
h -t 0.16132 -s 2 -d 1 -p ack -e 40 -c 2 -i 25 -a 2 -x {5.0 1.0 -1 ------- null}
- -t 0.161888 -s 1 -d 2 -p tcp -e 1040 -c 2 -i 33 -a 2 -x {1.0 5.0 20 ------- null}
h -t 0.161888 -s 1 -d 2 -p tcp -e 1040 -c 2 -i 33 -a 2 -x {1.0 5.0 -1 ------- null}