+ 0 0 8 tcp 40 ------- 0 0.0 4.0 0 0
- 0 0 8 tcp 40 ------- 0 0.0 4.0 0 0
r 0.00116 0 8 tcp 40 ------- 0 0.0 4.0 0 0
+ 0.00116 8 4 tcp 40 ------- 0 0.0 4.0 0 0
- 0.00116 8 4 tcp 40 ------- 0 0.0 4.0 0 0
r 0.00232 8 4 tcp 40 ------- 0 0.0 4.0 0 0
+ 0.00232 4 8 ack 40 ------- 0 4.0 0.0 0 1
- 0.00232 4 8 ack 40 ------- 0 4.0 0.0 0 1
r 0.00348 4 8 ack 40 ------- 0 4.0 0.0 0 1
+ 0.00348 8 0 ack 40 ------- 0 4.0 0.0 0 1
- 0.00348 8 0 ack 40 ------- 0 4.0 0.0 0 1
r 0.00464 8 0 ack 40 ------- 0 4.0 0.0 0 1
+ 0.00464 0 8 tcp 1040 ------- 0 0.0 4.0 1 2
- 0.00464 0 8 tcp 1040 ------- 0 0.0 4.0 1 2
+ 0.00464 0 8 tcp 1040 ------- 0 0.0 4.0 2 3
- 0.0088 0 8 tcp 1040 ------- 0 0.0 4.0 2 3
r 0.0098 0 8 tcp 1040 ------- 0 0.0 4.0 1 2
+ 0.0098 8 4 tcp 1040 ------- 0 0.0 4.0 1 2
- 0.0098 8 4 tcp 1040 ------- 0 0.0 4.0 1 2
r 0.01396 0 8 tcp 1040 ------- 0 0.0 4.0 2 3
+ 0.01396 8 4 tcp 1040 ------- 0 0.0 4.0 2 3
- 0.01396 8 4 tcp 1040 ------- 0 0.0 4.0 2 3
r 0.01496 8 4 tcp 1040 ------- 0 0.0 4.0 1 2
+ 0.01496 4 8 ack 40 ------- 0 4.0 0.0 1 4
- 0.01496 4 8 ack 40 ------- 0 4.0 0.0 1 4
r 0.01612 4 8 ack 40 ------- 0 4.0 0.0 1 4
+ 0.01612 8 0 ack 40 ------- 0 4.0 0.0 1 4
- 0.01612 8 0 ack 40 ------- 0 4.0 0.0 1 4
r 0.01728 8 0 ack 40 ------- 0 4.0 0.0 1 4
+ 0.01728 0 8 tcp 1040 ------- 0 0.0 4.0 3 5
- 0.01728 0 8 tcp 1040 ------- 0 0.0 4.0 3 5
+ 0.01728 0 8 tcp 1040 ------- 0 0.0 4.0 4 6
r 0.01912 8 4 tcp 1040 ------- 0 0.0 4.0 2 3
+ 0.01912 4 8 ack 40 ------- 0 4.0 0.0 2 7
- 0.01912 4 8 ack 40 ------- 0 4.0 0.0 2 7
r 0.02028 4 8 ack 40 ------- 0 4.0 0.0 2 7
+ 0.02028 8 0 ack 40 ------- 0 4.0 0.0 2 7
- 0.02028 8 0 ack 40 ------- 0 4.0 0.0 2 7
- 0.02144 0 8 tcp 1040 ------- 0 0.0 4.0 4 6
r 0.02144 8 0 ack 40 ------- 0 4.0 0.0 2 7
+ 0.02144 0 8 tcp 1040 ------- 0 0.0 4.0 5 8
+ 0.02144 0 8 tcp 1040 ------- 0 0.0 4.0 6 9
r 0.02244 0 8 tcp 1040 ------- 0 0.0 4.0 3 5
+ 0.02244 8 4 tcp 1040 ------- 0 0.0 4.0 3 5
- 0.02244 8 4 tcp 1040 ------- 0 0.0 4.0 3 5
- 0.0256 0 8 tcp 1040 ------- 0 0.0 4.0 5 8
r 0.0266 0 8 tcp 1040 ------- 0 0.0 4.0 4 6
+ 0.0266 8 4 tcp 1040 ------- 0 0.0 4.0 4 6
- 0.0266 8 4 tcp 1040 ------- 0 0.0 4.0 4 6
r 0.0276 8 4 tcp 1040 ------- 0 0.0 4.0 3 5
+ 0.0276 4 8 ack 40 ------- 0 4.0 0.0 3 10
- 0.0276 4 8 ack 40 ------- 0 4.0 0.0 3 10
r 0.02876 4 8 ack 40 ------- 0 4.0 0.0 3 10
+ 0.02876 8 0 ack 40 ------- 0 4.0 0.0 3 10
- 0.02876 8 0 ack 40 ------- 0 4.0 0.0 3 10
- 0.02976 0 8 tcp 1040 ------- 0 0.0 4.0 6 9
r 0.02992 8 0 ack 40 ------- 0 4.0 0.0 3 10
+ 0.02992 0 8 tcp 1040 ------- 0 0.0 4.0 7 11
+ 0.02992 0 8 tcp 1040 ------- 0 0.0 4.0 8 12
r 0.03076 0 8 tcp 1040 ------- 0 0.0 4.0 5 8
+ 0.03076 8 4 tcp 1040 ------- 0 0.0 4.0 5 8
- 0.03076 8 4 tcp 1040 ------- 0 0.0 4.0 5 8
r 0.03176 8 4 tcp 1040 ------- 0 0.0 4.0 4 6
+ 0.03176 4 8 ack 40 ------- 0 4.0 0.0 4 13
- 0.03176 4 8 ack 40 ------- 0 4.0 0.0 4 13
r 0.03292 4 8 ack 40 ------- 0 4.0 0.0 4 13
+ 0.03292 8 0 ack 40 ------- 0 4.0 0.0 4 13
- 0.03292 8 0 ack 40 ------- 0 4.0 0.0 4 13
- 0.03392 0 8 tcp 1040 ------- 0 0.0 4.0 7 11
r 0.03408 8 0 ack 40 ------- 0 4.0 0.0 4 13
+ 0.03408 0 8 tcp 1040 ------- 0 0.0 4.0 9 14
+ 0.03408 0 8 tcp 1040 ------- 0 0.0 4.0 10 15
r 0.03492 0 8 tcp 1040 ------- 0 0.0 4.0 6 9
+ 0.03492 8 4 tcp 1040 ------- 0 0.0 4.0 6 9
- 0.03492 8 4 tcp 1040 ------- 0 0.0 4.0 6 9
r 0.03592 8 4 tcp 1040 ------- 0 0.0 4.0 5 8
+ 0.03592 4 8 ack 40 ------- 0 4.0 0.0 5 16
- 0.03592 4 8 ack 40 ------- 0 4.0 0.0 5 16
r 0.03708 4 8 ack 40 ------- 0 4.0 0.0 5 16
+ 0.03708 8 0 ack 40 ------- 0 4.0 0.0 5 16
- 0.03708 8 0 ack 40 ------- 0 4.0 0.0 5 16
- 0.03808 0 8 tcp 1040 ------- 0 0.0 4.0 8 12
r 0.03824 8 0 ack 40 ------- 0 4.0 0.0 5 16
+ 0.03824 0 8 tcp 1040 ------- 0 0.0 4.0 11 17
+ 0.03824 0 8 tcp 1040 ------- 0 0.0 4.0 12 18
r 0.03908 0 8 tcp 1040 ------- 0 0.0 4.0 7 11
+ 0.03908 8 4 tcp 1040 ------- 0 0.0 4.0 7 11
- 0.03908 8 4 tcp 1040 ------- 0 0.0 4.0 7 11
r 0.04008 8 4 tcp 1040 ------- 0 0.0 4.0 6 9
+ 0.04008 4 8 ack 40 ------- 0 4.0 0.0 6 19
- 0.04008 4 8 ack 40 ------- 0 4.0 0.0 6 19
r 0.04124 4 8 ack 40 ------- 0 4.0 0.0 6 19
+ 0.04124 8 0 ack 40 ------- 0 4.0 0.0 6 19
- 0.04124 8 0 ack 40 ------- 0 4.0 0.0 6 19
- 0.04224 0 8 tcp 1040 ------- 0 0.0 4.0 9 14
r 0.0424 8 0 ack 40 ------- 0 4.0 0.0 6 19
+ 0.0424 0 8 tcp 1040 ------- 0 0.0 4.0 13 20
+ 0.0424 0 8 tcp 1040 ------- 0 0.0 4.0 14 21
r 0.04324 0 8 tcp 1040 ------- 0 0.0 4.0 8 12
+ 0.04324 8 4 tcp 1040 ------- 0 0.0 4.0 8 12
- 0.04324 8 4 tcp 1040 ------- 0 0.0 4.0 8 12
r 0.04424 8 4 tcp 1040 ------- 0 0.0 4.0 7 11
+ 0.04424 4 8 ack 40 ------- 0 4.0 0.0 7 22
- 0.04424 4 8 ack 40 ------- 0 4.0 0.0 7 22
r 0.0454 4 8 ack 40 ------- 0 4.0 0.0 7 22
+ 0.0454 8 0 ack 40 ------- 0 4.0 0.0 7 22
- 0.0454 8 0 ack 40 ------- 0 4.0 0.0 7 22
- 0.0464 0 8 tcp 1040 ------- 0 0.0 4.0 10 15
r 0.04656 8 0 ack 40 ------- 0 4.0 0.0 7 22
+ 0.04656 0 8 tcp 1040 ------- 0 0.0 4.0 15 23
+ 0.04656 0 8 tcp 1040 ------- 0 0.0 4.0 16 24
r 0.0474 0 8 tcp 1040 ------- 0 0.0 4.0 9 14
+ 0.0474 8 4 tcp 1040 ------- 0 0.0 4.0 9 14
- 0.0474 8 4 tcp 1040 ------- 0 0.0 4.0 9 14
r 0.0484 8 4 tcp 1040 ------- 0 0.0 4.0 8 12
+ 0.0484 4 8 ack 40 ------- 0 4.0 0.0 8 25
- 0.0484 4 8 ack 40 ------- 0 4.0 0.0 8 25
r 0.04956 4 8 ack 40 ------- 0 4.0 0.0 8 25
+ 0.04956 8 0 ack 40 ------- 0 4.0 0.0 8 25
- 0.04956 8 0 ack 40 ------- 0 4.0 0.0 8 25
- 0.05056 0 8 tcp 1040 ------- 0 0.0 4.0 11 17
r 0.05072 8 0 ack 40 ------- 0 4.0 0.0 8 25
+ 0.05072 0 8 tcp 1040 ------- 0 0.0 4.0 17 26
+ 0.05072 0 8 tcp 1040 ------- 0 0.0 4.0 18 27
r 0.05156 0 8 tcp 1040 ------- 0 0.0 4.0 10 15
+ 0.05156 8 4 tcp 1040 ------- 0 0.0 4.0 10 15
- 0.05156 8 4 tcp 1040 ------- 0 0.0 4.0 10 15
r 0.05256 8 4 tcp 1040 ------- 0 0.0 4.0 9 14
+ 0.05256 4 8 ack 40 ------- 0 4.0 0.0 9 28
- 0.05256 4 8 ack 40 ------- 0 4.0 0.0 9 28
r 0.05372 4 8 ack 40 ------- 0 4.0 0.0 9 28
+ 0.05372 8 0 ack 40 ------- 0 4.0 0.0 9 28
- 0.05372 8 0 ack 40 ------- 0 4.0 0.0 9 28
- 0.05472 0 8 tcp 1040 ------- 0 0.0 4.0 12 18
r 0.05488 8 0 ack 40 ------- 0 4.0 0.0 9 28
+ 0.05488 0 8 tcp 1040 ------- 0 0.0 4.0 19 29
+ 0.05488 0 8 tcp 1040 ------- 0 0.0 4.0 20 30
r 0.05572 0 8 tcp 1040 ------- 0 0.0 4.0 11 17
+ 0.05572 8 4 tcp 1040 ------- 0 0.0 4.0 11 17
- 0.05572 8 4 tcp 1040 ------- 0 0.0 4.0 11 17
r 0.05672 8 4 tcp 1040 ------- 0 0.0 4.0 10 15
+ 0.05672 4 8 ack 40 ------- 0 4.0 0.0 10 31
- 0.05672 4 8 ack 40 ------- 0 4.0 0.0 10 31
r 0.05788 4 8 ack 40 ------- 0 4.0 0.0 10 31
+ 0.05788 8 0 ack 40 ------- 0 4.0 0.0 10 31
- 0.05788 8 0 ack 40 ------- 0 4.0 0.0 10 31
- 0.05888 0 8 tcp 1040 ------- 0 0.0 4.0 13 20
r 0.05904 8 0 ack 40 ------- 0 4.0 0.0 10 31
+ 0.05904 0 8 tcp 1040 ------- 0 0.0 4.0 21 32
+ 0.05904 0 8 tcp 1040 ------- 0 0.0 4.0 22 33
r 0.05988 0 8 tcp 1040 ------- 0 0.0 4.0 12 18
+ 0.05988 8 4 tcp 1040 ------- 0 0.0 4.0 12 18
- 0.05988 8 4 tcp 1040 ------- 0 0.0 4.0 12 18
r 0.06088 8 4 tcp 1040 ------- 0 0.0 4.0 11 17
+ 0.06088 4 8 ack 40 ------- 0 4.0 0.0 11 34
- 0.06088 4 8 ack 40 ------- 0 4.0 0.0 11 34
r 0.06204 4 8 ack 40 ------- 0 4.0 0.0 11 34
+ 0.06204 8 0 ack 40 ------- 0 4.0 0.0 11 34
- 0.06204 8 0 ack 40 ------- 0 4.0 0.0 11 34
- 0.06304 0 8 tcp 1040 ------- 0 0.0 4.0 14 21
r 0.0632 8 0 ack 40 ------- 0 4.0 0.0 11 34
+ 0.0632 0 8 tcp 1040 ------- 0 0.0 4.0 23 35
+ 0.0632 0 8 tcp 1040 ------- 0 0.0 4.0 24 36
d 0.0632 0 8 tcp 1040 ------- 0 0.0 4.0 24 36
r 0.06404 0 8 tcp 1040 ------- 0 0.0 4.0 13 20
+ 0.06404 8 4 tcp 1040 ------- 0 0.0 4.0 13 20
- 0.06404 8 4 tcp 1040 ------- 0 0.0 4.0 13 20
r 0.06504 8 4 tcp 1040 ------- 0 0.0 4.0 12 18
+ 0.06504 4 8 ack 40 ------- 0 4.0 0.0 12 37
- 0.06504 4 8 ack 40 ------- 0 4.0 0.0 12 37
r 0.0662 4 8 ack 40 ------- 0 4.0 0.0 12 37
+ 0.0662 8 0 ack 40 ------- 0 4.0 0.0 12 37
- 0.0662 8 0 ack 40 ------- 0 4.0 0.0 12 37
- 0.0672 0 8 tcp 1040 ------- 0 0.0 4.0 15 23
r 0.06736 8 0 ack 40 ------- 0 4.0 0.0 12 37
+ 0.06736 0 8 tcp 1040 ------- 0 0.0 4.0 25 38
+ 0.06736 0 8 tcp 1040 ------- 0 0.0 4.0 26 39
d 0.06736 0 8 tcp 1040 ------- 0 0.0 4.0 26 39
r 0.0682 0 8 tcp 1040 ------- 0 0.0 4.0 14 21
+ 0.0682 8 4 tcp 1040 ------- 0 0.0 4.0 14 21
- 0.0682 8 4 tcp 1040 ------- 0 0.0 4.0 14 21
r 0.0692 8 4 tcp 1040 ------- 0 0.0 4.0 13 20
+ 0.0692 4 8 ack 40 ------- 0 4.0 0.0 13 40
- 0.0692 4 8 ack 40 ------- 0 4.0 0.0 13 40
r 0.07036 4 8 ack 40 ------- 0 4.0 0.0 13 40
+ 0.07036 8 0 ack 40 ------- 0 4.0 0.0 13 40
- 0.07036 8 0 ack 40 ------- 0 4.0 0.0 13 40
- 0.07136 0 8 tcp 1040 ------- 0 0.0 4.0 16 24
r 0.07152 8 0 ack 40 ------- 0 4.0 0.0 13 40
+ 0.07152 0 8 tcp 1040 ------- 0 0.0 4.0 27 41
+ 0.07152 0 8 tcp 1040 ------- 0 0.0 4.0 28 42
d 0.07152 0 8 tcp 1040 ------- 0 0.0 4.0 28 42
r 0.07236 0 8 tcp 1040 ------- 0 0.0 4.0 15 23
+ 0.07236 8 4 tcp 1040 ------- 0 0.0 4.0 15 23
- 0.07236 8 4 tcp 1040 ------- 0 0.0 4.0 15 23
r 0.07336 8 4 tcp 1040 ------- 0 0.0 4.0 14 21
+ 0.07336 4 8 ack 40 ------- 0 4.0 0.0 14 43
- 0.07336 4 8 ack 40 ------- 0 4.0 0.0 14 43
r 0.07452 4 8 ack 40 ------- 0 4.0 0.0 14 43
+ 0.07452 8 0 ack 40 ------- 0 4.0 0.0 14 43
- 0.07452 8 0 ack 40 ------- 0 4.0 0.0 14 43
- 0.07552 0 8 tcp 1040 ------- 0 0.0 4.0 17 26
r 0.07568 8 0 ack 40 ------- 0 4.0 0.0 14 43
+ 0.07568 0 8 tcp 1040 ------- 0 0.0 4.0 29 44
+ 0.07568 0 8 tcp 1040 ------- 0 0.0 4.0 30 45
d 0.07568 0 8 tcp 1040 ------- 0 0.0 4.0 30 45
r 0.07652 0 8 tcp 1040 ------- 0 0.0 4.0 16 24
+ 0.07652 8 4 tcp 1040 ------- 0 0.0 4.0 16 24
- 0.07652 8 4 tcp 1040 ------- 0 0.0 4.0 16 24
r 0.07752 8 4 tcp 1040 ------- 0 0.0 4.0 15 23
+ 0.07752 4 8 ack 40 ------- 0 4.0 0.0 15 46
- 0.07752 4 8 ack 40 ------- 0 4.0 0.0 15 46
r 0.07868 4 8 ack 40 ------- 0 4.0 0.0 15 46
+ 0.07868 8 0 ack 40 ------- 0 4.0 0.0 15 46
- 0.07868 8 0 ack 40 ------- 0 4.0 0.0 15 46
- 0.07968 0 8 tcp 1040 ------- 0 0.0 4.0 18 27
r 0.07984 8 0 ack 40 ------- 0 4.0 0.0 15 46
+ 0.07984 0 8 tcp 1040 ------- 0 0.0 4.0 31 47
+ 0.07984 0 8 tcp 1040 ------- 0 0.0 4.0 32 48
d 0.07984 0 8 tcp 1040 ------- 0 0.0 4.0 32 48
r 0.08068 0 8 tcp 1040 ------- 0 0.0 4.0 17 26
+ 0.08068 8 4 tcp 1040 ------- 0 0.0 4.0 17 26
- 0.08068 8 4 tcp 1040 ------- 0 0.0 4.0 17 26
r 0.08168 8 4 tcp 1040 ------- 0 0.0 4.0 16 24
+ 0.08168 4 8 ack 40 ------- 0 4.0 0.0 16 49
- 0.08168 4 8 ack 40 ------- 0 4.0 0.0 16 49
r 0.08284 4 8 ack 40 ------- 0 4.0 0.0 16 49
+ 0.08284 8 0 ack 40 ------- 0 4.0 0.0 16 49
- 0.08284 8 0 ack 40 ------- 0 4.0 0.0 16 49
- 0.08384 0 8 tcp 1040 ------- 0 0.0 4.0 19 29
r 0.084 8 0 ack 40 ------- 0 4.0 0.0 16 49
+ 0.084 0 8 tcp 1040 ------- 0 0.0 4.0 33 50
+ 0.084 0 8 tcp 1040 ------- 0 0.0 4.0 34 51
d 0.084 0 8 tcp 1040 ------- 0 0.0 4.0 34 51
r 0.08484 0 8 tcp 1040 ------- 0 0.0 4.0 18 27
+ 0.08484 8 4 tcp 1040 ------- 0 0.0 4.0 18 27
- 0.08484 8 4 tcp 1040 ------- 0 0.0 4.0 18 27
r 0.08584 8 4 tcp 1040 ------- 0 0.0 4.0 17 26
+ 0.08584 4 8 ack 40 ------- 0 4.0 0.0 17 52
- 0.08584 4 8 ack 40 ------- 0 4.0 0.0 17 52
r 0.087 4 8 ack 40 ------- 0 4.0 0.0 17 52
+ 0.087 8 0 ack 40 ------- 0 4.0 0.0 17 52
- 0.087 8 0 ack 40 ------- 0 4.0 0.0 17 52
- 0.088 0 8 tcp 1040 ------- 0 0.0 4.0 20 30
r 0.08816 8 0 ack 40 ------- 0 4.0 0.0 17 52
+ 0.08816 0 8 tcp 1040 ------- 0 0.0 4.0 35 53
+ 0.08816 0 8 tcp 1040 ------- 0 0.0 4.0 36 54
d 0.08816 0 8 tcp 1040 ------- 0 0.0 4.0 36 54
r 0.089 0 8 tcp 1040 ------- 0 0.0 4.0 19 29
+ 0.089 8 4 tcp 1040 ------- 0 0.0 4.0 19 29
- 0.089 8 4 tcp 1040 ------- 0 0.0 4.0 19 29
r 0.09 8 4 tcp 1040 ------- 0 0.0 4.0 18 27
+ 0.09 4 8 ack 40 ------- 0 4.0 0.0 18 55
- 0.09 4 8 ack 40 ------- 0 4.0 0.0 18 55
r 0.09116 4 8 ack 40 ------- 0 4.0 0.0 18 55
+ 0.09116 8 0 ack 40 ------- 0 4.0 0.0 18 55
- 0.09116 8 0 ack 40 ------- 0 4.0 0.0 18 55
- 0.09216 0 8 tcp 1040 ------- 0 0.0 4.0 21 32
r 0.09232 8 0 ack 40 ------- 0 4.0 0.0 18 55
+ 0.09232 0 8 tcp 1040 ------- 0 0.0 4.0 37 56
+ 0.09232 0 8 tcp 1040 ------- 0 0.0 4.0 38 57
d 0.09232 0 8 tcp 1040 ------- 0 0.0 4.0 38 57
r 0.09316 0 8 tcp 1040 ------- 0 0.0 4.0 20 30
+ 0.09316 8 4 tcp 1040 ------- 0 0.0 4.0 20 30
- 0.09316 8 4 tcp 1040 ------- 0 0.0 4.0 20 30
r 0.09416 8 4 tcp 1040 ------- 0 0.0 4.0 19 29
+ 0.09416 4 8 ack 40 ------- 0 4.0 0.0 19 58
- 0.09416 4 8 ack 40 ------- 0 4.0 0.0 19 58
r 0.09532 4 8 ack 40 ------- 0 4.0 0.0 19 58
+ 0.09532 8 0 ack 40 ------- 0 4.0 0.0 19 58
- 0.09532 8 0 ack 40 ------- 0 4.0 0.0 19 58
- 0.09632 0 8 tcp 1040 ------- 0 0.0 4.0 22 33
r 0.09648 8 0 ack 40 ------- 0 4.0 0.0 19 58
+ 0.09648 0 8 tcp 1040 ------- 0 0.0 4.0 39 59
r 0.09732 0 8 tcp 1040 ------- 0 0.0 4.0 21 32
+ 0.09732 8 4 tcp 1040 ------- 0 0.0 4.0 21 32
- 0.09732 8 4 tcp 1040 ------- 0 0.0 4.0 21 32
r 0.09832 8 4 tcp 1040 ------- 0 0.0 4.0 20 30
+ 0.09832 4 8 ack 40 ------- 0 4.0 0.0 20 60
- 0.09832 4 8 ack 40 ------- 0 4.0 0.0 20 60
r 0.09948 4 8 ack 40 ------- 0 4.0 0.0 20 60
+ 0.09948 8 0 ack 40 ------- 0 4.0 0.0 20 60
- 0.09948 8 0 ack 40 ------- 0 4.0 0.0 20 60
- 0.10048 0 8 tcp 1040 ------- 0 0.0 4.0 23 35
r 0.10064 8 0 ack 40 ------- 0 4.0 0.0 20 60
+ 0.10064 0 8 tcp 1040 ------- 0 0.0 4.0 40 61
r 0.10148 0 8 tcp 1040 ------- 0 0.0 4.0 22 33
+ 0.10148 8 4 tcp 1040 ------- 0 0.0 4.0 22 33
- 0.10148 8 4 tcp 1040 ------- 0 0.0 4.0 22 33
r 0.10248 8 4 tcp 1040 ------- 0 0.0 4.0 21 32
+ 0.10248 4 8 ack 40 ------- 0 4.0 0.0 21 62
- 0.10248 4 8 ack 40 ------- 0 4.0 0.0 21 62
r 0.10364 4 8 ack 40 ------- 0 4.0 0.0 21 62
+ 0.10364 8 0 ack 40 ------- 0 4.0 0.0 21 62
- 0.10364 8 0 ack 40 ------- 0 4.0 0.0 21 62
- 0.10464 0 8 tcp 1040 ------- 0 0.0 4.0 25 38
r 0.1048 8 0 ack 40 ------- 0 4.0 0.0 21 62
+ 0.1048 0 8 tcp 1040 ------- 0 0.0 4.0 41 63
r 0.10564 0 8 tcp 1040 ------- 0 0.0 4.0 23 35
+ 0.10564 8 4 tcp 1040 ------- 0 0.0 4.0 23 35
- 0.10564 8 4 tcp 1040 ------- 0 0.0 4.0 23 35
r 0.10664 8 4 tcp 1040 ------- 0 0.0 4.0 22 33
+ 0.10664 4 8 ack 40 ------- 0 4.0 0.0 22 64
- 0.10664 4 8 ack 40 ------- 0 4.0 0.0 22 64
r 0.1078 4 8 ack 40 ------- 0 4.0 0.0 22 64
+ 0.1078 8 0 ack 40 ------- 0 4.0 0.0 22 64
- 0.1078 8 0 ack 40 ------- 0 4.0 0.0 22 64
- 0.1088 0 8 tcp 1040 ------- 0 0.0 4.0 27 41
r 0.10896 8 0 ack 40 ------- 0 4.0 0.0 22 64
+ 0.10896 0 8 tcp 1040 ------- 0 0.0 4.0 42 65
r 0.1098 0 8 tcp 1040 ------- 0 0.0 4.0 25 38
+ 0.1098 8 4 tcp 1040 ------- 0 0.0 4.0 25 38
- 0.1098 8 4 tcp 1040 ------- 0 0.0 4.0 25 38
r 0.1108 8 4 tcp 1040 ------- 0 0.0 4.0 23 35
+ 0.1108 4 8 ack 40 ------- 0 4.0 0.0 23 66
- 0.1108 4 8 ack 40 ------- 0 4.0 0.0 23 66
r 0.11196 4 8 ack 40 ------- 0 4.0 0.0 23 66
+ 0.11196 8 0 ack 40 ------- 0 4.0 0.0 23 66
- 0.11196 8 0 ack 40 ------- 0 4.0 0.0 23 66
- 0.11296 0 8 tcp 1040 ------- 0 0.0 4.0 29 44
r 0.11312 8 0 ack 40 ------- 0 4.0 0.0 23 66
+ 0.11312 0 8 tcp 1040 ------- 0 0.0 4.0 43 67
r 0.11396 0 8 tcp 1040 ------- 0 0.0 4.0 27 41
+ 0.11396 8 4 tcp 1040 ------- 0 0.0 4.0 27 41
- 0.11396 8 4 tcp 1040 ------- 0 0.0 4.0 27 41
r 0.11496 8 4 tcp 1040 ------- 0 0.0 4.0 25 38
+ 0.11496 4 8 ack 40 ------- 0 4.0 0.0 23 68
- 0.11496 4 8 ack 40 ------- 0 4.0 0.0 23 68
r 0.11612 4 8 ack 40 ------- 0 4.0 0.0 23 68
+ 0.11612 8 0 ack 40 ------- 0 4.0 0.0 23 68
- 0.11612 8 0 ack 40 ------- 0 4.0 0.0 23 68
- 0.11712 0 8 tcp 1040 ------- 0 0.0 4.0 31 47
r 0.11728 8 0 ack 40 ------- 0 4.0 0.0 23 68
r 0.11812 0 8 tcp 1040 ------- 0 0.0 4.0 29 44
+ 0.11812 8 4 tcp 1040 ------- 0 0.0 4.0 29 44
- 0.11812 8 4 tcp 1040 ------- 0 0.0 4.0 29 44
r 0.11912 8 4 tcp 1040 ------- 0 0.0 4.0 27 41
+ 0.11912 4 8 ack 40 ------- 0 4.0 0.0 23 69
- 0.11912 4 8 ack 40 ------- 0 4.0 0.0 23 69
r 0.12028 4 8 ack 40 ------- 0 4.0 0.0 23 69
+ 0.12028 8 0 ack 40 ------- 0 4.0 0.0 23 69
- 0.12028 8 0 ack 40 ------- 0 4.0 0.0 23 69
- 0.12128 0 8 tcp 1040 ------- 0 0.0 4.0 33 50
r 0.12144 8 0 ack 40 ------- 0 4.0 0.0 23 69
r 0.12228 0 8 tcp 1040 ------- 0 0.0 4.0 31 47
+ 0.12228 8 4 tcp 1040 ------- 0 0.0 4.0 31 47
- 0.12228 8 4 tcp 1040 ------- 0 0.0 4.0 31 47
r 0.12328 8 4 tcp 1040 ------- 0 0.0 4.0 29 44
+ 0.12328 4 8 ack 40 ------- 0 4.0 0.0 23 70
- 0.12328 4 8 ack 40 ------- 0 4.0 0.0 23 70
r 0.12444 4 8 ack 40 ------- 0 4.0 0.0 23 70
+ 0.12444 8 0 ack 40 ------- 0 4.0 0.0 23 70
- 0.12444 8 0 ack 40 ------- 0 4.0 0.0 23 70
- 0.12544 0 8 tcp 1040 ------- 0 0.0 4.0 35 53
r 0.1256 8 0 ack 40 ------- 0 4.0 0.0 23 70
+ 0.1256 0 8 tcp 1040 ------- 0 0.0 4.0 24 71
r 0.12644 0 8 tcp 1040 ------- 0 0.0 4.0 33 50
+ 0.12644 8 4 tcp 1040 ------- 0 0.0 4.0 33 50
- 0.12644 8 4 tcp 1040 ------- 0 0.0 4.0 33 50
r 0.12744 8 4 tcp 1040 ------- 0 0.0 4.0 31 47
+ 0.12744 4 8 ack 40 ------- 0 4.0 0.0 23 72
- 0.12744 4 8 ack 40 ------- 0 4.0 0.0 23 72
r 0.1286 4 8 ack 40 ------- 0 4.0 0.0 23 72
+ 0.1286 8 0 ack 40 ------- 0 4.0 0.0 23 72
- 0.1286 8 0 ack 40 ------- 0 4.0 0.0 23 72
- 0.1296 0 8 tcp 1040 ------- 0 0.0 4.0 37 56
r 0.12976 8 0 ack 40 ------- 0 4.0 0.0 23 72
r 0.1306 0 8 tcp 1040 ------- 0 0.0 4.0 35 53
+ 0.1306 8 4 tcp 1040 ------- 0 0.0 4.0 35 53
- 0.1306 8 4 tcp 1040 ------- 0 0.0 4.0 35 53
r 0.1316 8 4 tcp 1040 ------- 0 0.0 4.0 33 50
+ 0.1316 4 8 ack 40 ------- 0 4.0 0.0 23 73
- 0.1316 4 8 ack 40 ------- 0 4.0 0.0 23 73
r 0.13276 4 8 ack 40 ------- 0 4.0 0.0 23 73
+ 0.13276 8 0 ack 40 ------- 0 4.0 0.0 23 73
- 0.13276 8 0 ack 40 ------- 0 4.0 0.0 23 73
- 0.13376 0 8 tcp 1040 ------- 0 0.0 4.0 39 59
r 0.13392 8 0 ack 40 ------- 0 4.0 0.0 23 73
r 0.13476 0 8 tcp 1040 ------- 0 0.0 4.0 37 56
+ 0.13476 8 4 tcp 1040 ------- 0 0.0 4.0 37 56
- 0.13476 8 4 tcp 1040 ------- 0 0.0 4.0 37 56
r 0.13576 8 4 tcp 1040 ------- 0 0.0 4.0 35 53
+ 0.13576 4 8 ack 40 ------- 0 4.0 0.0 23 74
- 0.13576 4 8 ack 40 ------- 0 4.0 0.0 23 74
r 0.13692 4 8 ack 40 ------- 0 4.0 0.0 23 74
+ 0.13692 8 0 ack 40 ------- 0 4.0 0.0 23 74
- 0.13692 8 0 ack 40 ------- 0 4.0 0.0 23 74
- 0.13792 0 8 tcp 1040 ------- 0 0.0 4.0 40 61
r 0.13808 8 0 ack 40 ------- 0 4.0 0.0 23 74
r 0.13892 0 8 tcp 1040 ------- 0 0.0 4.0 39 59
+ 0.13892 8 4 tcp 1040 ------- 0 0.0 4.0 39 59
- 0.13892 8 4 tcp 1040 ------- 0 0.0 4.0 39 59
r 0.13992 8 4 tcp 1040 ------- 0 0.0 4.0 37 56
+ 0.13992 4 8 ack 40 ------- 0 4.0 0.0 23 75
- 0.13992 4 8 ack 40 ------- 0 4.0 0.0 23 75
r 0.14108 4 8 ack 40 ------- 0 4.0 0.0 23 75
+ 0.14108 8 0 ack 40 ------- 0 4.0 0.0 23 75
- 0.14108 8 0 ack 40 ------- 0 4.0 0.0 23 75
- 0.14208 0 8 tcp 1040 ------- 0 0.0 4.0 41 63
r 0.14224 8 0 ack 40 ------- 0 4.0 0.0 23 75
r 0.14308 0 8 tcp 1040 ------- 0 0.0 4.0 40 61
+ 0.14308 8 4 tcp 1040 ------- 0 0.0 4.0 40 61
- 0.14308 8 4 tcp 1040 ------- 0 0.0 4.0 40 61
r 0.14408 8 4 tcp 1040 ------- 0 0.0 4.0 39 59
+ 0.14408 4 8 ack 40 ------- 0 4.0 0.0 23 76
- 0.14408 4 8 ack 40 ------- 0 4.0 0.0 23 76
r 0.14524 4 8 ack 40 ------- 0 4.0 0.0 23 76
+ 0.14524 8 0 ack 40 ------- 0 4.0 0.0 23 76
- 0.14524 8 0 ack 40 ------- 0 4.0 0.0 23 76
- 0.14624 0 8 tcp 1040 ------- 0 0.0 4.0 42 65
r 0.1464 8 0 ack 40 ------- 0 4.0 0.0 23 76
r 0.14724 0 8 tcp 1040 ------- 0 0.0 4.0 41 63
+ 0.14724 8 4 tcp 1040 ------- 0 0.0 4.0 41 63
- 0.14724 8 4 tcp 1040 ------- 0 0.0 4.0 41 63
r 0.14824 8 4 tcp 1040 ------- 0 0.0 4.0 40 61
+ 0.14824 4 8 ack 40 ------- 0 4.0 0.0 23 77
- 0.14824 4 8 ack 40 ------- 0 4.0 0.0 23 77
r 0.1494 4 8 ack 40 ------- 0 4.0 0.0 23 77
+ 0.1494 8 0 ack 40 ------- 0 4.0 0.0 23 77
- 0.1494 8 0 ack 40 ------- 0 4.0 0.0 23 77
- 0.1504 0 8 tcp 1040 ------- 0 0.0 4.0 43 67
r 0.15056 8 0 ack 40 ------- 0 4.0 0.0 23 77
r 0.1514 0 8 tcp 1040 ------- 0 0.0 4.0 42 65
+ 0.1514 8 4 tcp 1040 ------- 0 0.0 4.0 42 65
- 0.1514 8 4 tcp 1040 ------- 0 0.0 4.0 42 65
r 0.1524 8 4 tcp 1040 ------- 0 0.0 4.0 41 63
+ 0.1524 4 8 ack 40 ------- 0 4.0 0.0 23 78
- 0.1524 4 8 ack 40 ------- 0 4.0 0.0 23 78
r 0.15356 4 8 ack 40 ------- 0 4.0 0.0 23 78
+ 0.15356 8 0 ack 40 ------- 0 4.0 0.0 23 78
- 0.15356 8 0 ack 40 ------- 0 4.0 0.0 23 78
- 0.15456 0 8 tcp 1040 ------- 0 0.0 4.0 24 71
r 0.15472 8 0 ack 40 ------- 0 4.0 0.0 23 78
r 0.15556 0 8 tcp 1040 ------- 0 0.0 4.0 43 67
+ 0.15556 8 4 tcp 1040 ------- 0 0.0 4.0 43 67
- 0.15556 8 4 tcp 1040 ------- 0 0.0 4.0 43 67
r 0.15656 8 4 tcp 1040 ------- 0 0.0 4.0 42 65
+ 0.15656 4 8 ack 40 ------- 0 4.0 0.0 23 79
- 0.15656 4 8 ack 40 ------- 0 4.0 0.0 23 79
r 0.15772 4 8 ack 40 ------- 0 4.0 0.0 23 79
+ 0.15772 8 0 ack 40 ------- 0 4.0 0.0 23 79
- 0.15772 8 0 ack 40 ------- 0 4.0 0.0 23 79
r 0.15888 8 0 ack 40 ------- 0 4.0 0.0 23 79
r 0.15972 0 8 tcp 1040 ------- 0 0.0 4.0 24 71
+ 0.15972 8 4 tcp 1040 ------- 0 0.0 4.0 24 71
- 0.15972 8 4 tcp 1040 ------- 0 0.0 4.0 24 71
r 0.16072 8 4 tcp 1040 ------- 0 0.0 4.0 43 67
+ 0.16072 4 8 ack 40 ------- 0 4.0 0.0 23 80
- 0.16072 4 8 ack 40 ------- 0 4.0 0.0 23 80
r 0.16188 4 8 ack 40 ------- 0 4.0 0.0 23 80
+ 0.16188 8 0 ack 40 ------- 0 4.0 0.0 23 80
- 0.16188 8 0 ack 40 ------- 0 4.0 0.0 23 80
r 0.16304 8 0 ack 40 ------- 0 4.0 0.0 23 80
r 0.16488 8 4 tcp 1040 ------- 0 0.0 4.0 24 71
+ 0.16488 4 8 ack 40 ------- 0 4.0 0.0 25 81
- 0.16488 4 8 ack 40 ------- 0 4.0 0.0 25 81
r 0.16604 4 8 ack 40 ------- 0 4.0 0.0 25 81
+ 0.16604 8 0 ack 40 ------- 0 4.0 0.0 25 81
- 0.16604 8 0 ack 40 ------- 0 4.0 0.0 25 81
r 0.1672 8 0 ack 40 ------- 0 4.0 0.0 25 81
+ 0.1672 0 8 tcp 1040 ------- 0 0.0 4.0 26 82
- 0.1672 0 8 tcp 1040 ------- 0 0.0 4.0 26 82
+ 0.1672 0 8 tcp 1040 ------- 0 0.0 4.0 27 83
- 0.17136 0 8 tcp 1040 ------- 0 0.0 4.0 27 83
r 0.17236 0 8 tcp 1040 ------- 0 0.0 4.0 26 82
+ 0.17236 8 4 tcp 1040 ------- 0 0.0 4.0 26 82
- 0.17236 8 4 tcp 1040 ------- 0 0.0 4.0 26 82
r 0.17652 0 8 tcp 1040 ------- 0 0.0 4.0 27 83
+ 0.17652 8 4 tcp 1040 ------- 0 0.0 4.0 27 83
- 0.17652 8 4 tcp 1040 ------- 0 0.0 4.0 27 83
r 0.17752 8 4 tcp 1040 ------- 0 0.0 4.0 26 82
+ 0.17752 4 8 ack 40 ------- 0 4.0 0.0 27 84
- 0.17752 4 8 ack 40 ------- 0 4.0 0.0 27 84
r 0.17868 4 8 ack 40 ------- 0 4.0 0.0 27 84
+ 0.17868 8 0 ack 40 ------- 0 4.0 0.0 27 84
- 0.17868 8 0 ack 40 ------- 0 4.0 0.0 27 84
r 0.17984 8 0 ack 40 ------- 0 4.0 0.0 27 84
+ 0.17984 0 8 tcp 1040 ------- 0 0.0 4.0 28 85
- 0.17984 0 8 tcp 1040 ------- 0 0.0 4.0 28 85
+ 0.17984 0 8 tcp 1040 ------- 0 0.0 4.0 29 86
+ 0.17984 0 8 tcp 1040 ------- 0 0.0 4.0 30 87
r 0.18168 8 4 tcp 1040 ------- 0 0.0 4.0 27 83
+ 0.18168 4 8 ack 40 ------- 0 4.0 0.0 27 88
- 0.18168 4 8 ack 40 ------- 0 4.0 0.0 27 88
r 0.18284 4 8 ack 40 ------- 0 4.0 0.0 27 88
+ 0.18284 8 0 ack 40 ------- 0 4.0 0.0 27 88
- 0.18284 8 0 ack 40 ------- 0 4.0 0.0 27 88
- 0.184 0 8 tcp 1040 ------- 0 0.0 4.0 29 86
r 0.184 8 0 ack 40 ------- 0 4.0 0.0 27 88
+ 0.184 0 8 tcp 1040 ------- 0 0.0 4.0 31 89
r 0.185 0 8 tcp 1040 ------- 0 0.0 4.0 28 85
+ 0.185 8 4 tcp 1040 ------- 0 0.0 4.0 28 85
- 0.185 8 4 tcp 1040 ------- 0 0.0 4.0 28 85
- 0.18816 0 8 tcp 1040 ------- 0 0.0 4.0 30 87
r 0.18916 0 8 tcp 1040 ------- 0 0.0 4.0 29 86
+ 0.18916 8 4 tcp 1040 ------- 0 0.0 4.0 29 86
- 0.18916 8 4 tcp 1040 ------- 0 0.0 4.0 29 86
r 0.19016 8 4 tcp 1040 ------- 0 0.0 4.0 28 85
+ 0.19016 4 8 ack 40 ------- 0 4.0 0.0 29 90
- 0.19016 4 8 ack 40 ------- 0 4.0 0.0 29 90
r 0.19132 4 8 ack 40 ------- 0 4.0 0.0 29 90
+ 0.19132 8 0 ack 40 ------- 0 4.0 0.0 29 90
- 0.19132 8 0 ack 40 ------- 0 4.0 0.0 29 90
- 0.19232 0 8 tcp 1040 ------- 0 0.0 4.0 31 89
r 0.19248 8 0 ack 40 ------- 0 4.0 0.0 29 90
+ 0.19248 0 8 tcp 1040 ------- 0 0.0 4.0 32 91
+ 0.19248 0 8 tcp 1040 ------- 0 0.0 4.0 33 92
r 0.19332 0 8 tcp 1040 ------- 0 0.0 4.0 30 87
+ 0.19332 8 4 tcp 1040 ------- 0 0.0 4.0 30 87
- 0.19332 8 4 tcp 1040 ------- 0 0.0 4.0 30 87
r 0.19432 8 4 tcp 1040 ------- 0 0.0 4.0 29 86
+ 0.19432 4 8 ack 40 ------- 0 4.0 0.0 29 93
- 0.19432 4 8 ack 40 ------- 0 4.0 0.0 29 93
r 0.19548 4 8 ack 40 ------- 0 4.0 0.0 29 93
+ 0.19548 8 0 ack 40 ------- 0 4.0 0.0 29 93
- 0.19548 8 0 ack 40 ------- 0 4.0 0.0 29 93
- 0.19648 0 8 tcp 1040 ------- 0 0.0 4.0 32 91
r 0.19664 8 0 ack 40 ------- 0 4.0 0.0 29 93
+ 0.19664 0 8 tcp 1040 ------- 0 0.0 4.0 34 94
r 0.19748 0 8 tcp 1040 ------- 0 0.0 4.0 31 89
+ 0.19748 8 4 tcp 1040 ------- 0 0.0 4.0 31 89
- 0.19748 8 4 tcp 1040 ------- 0 0.0 4.0 31 89
r 0.19848 8 4 tcp 1040 ------- 0 0.0 4.0 30 87
+ 0.19848 4 8 ack 40 ------- 0 4.0 0.0 31 95
- 0.19848 4 8 ack 40 ------- 0 4.0 0.0 31 95
r 0.19964 4 8 ack 40 ------- 0 4.0 0.0 31 95
+ 0.19964 8 0 ack 40 ------- 0 4.0 0.0 31 95
- 0.19964 8 0 ack 40 ------- 0 4.0 0.0 31 95
- 0.20064 0 8 tcp 1040 ------- 0 0.0 4.0 33 92
r 0.2008 8 0 ack 40 ------- 0 4.0 0.0 31 95
+ 0.2008 0 8 tcp 1040 ------- 0 0.0 4.0 35 96
+ 0.2008 0 8 tcp 1040 ------- 0 0.0 4.0 36 97
r 0.20164 0 8 tcp 1040 ------- 0 0.0 4.0 32 91
+ 0.20164 8 4 tcp 1040 ------- 0 0.0 4.0 32 91
- 0.20164 8 4 tcp 1040 ------- 0 0.0 4.0 32 91
r 0.20264 8 4 tcp 1040 ------- 0 0.0 4.0 31 89
+ 0.20264 4 8 ack 40 ------- 0 4.0 0.0 31 98
- 0.20264 4 8 ack 40 ------- 0 4.0 0.0 31 98
r 0.2038 4 8 ack 40 ------- 0 4.0 0.0 31 98
+ 0.2038 8 0 ack 40 ------- 0 4.0 0.0 31 98
- 0.2038 8 0 ack 40 ------- 0 4.0 0.0 31 98
- 0.2048 0 8 tcp 1040 ------- 0 0.0 4.0 34 94
r 0.20496 8 0 ack 40 ------- 0 4.0 0.0 31 98
+ 0.20496 0 8 tcp 1040 ------- 0 0.0 4.0 37 99
r 0.2058 0 8 tcp 1040 ------- 0 0.0 4.0 33 92
+ 0.2058 8 4 tcp 1040 ------- 0 0.0 4.0 33 92
- 0.2058 8 4 tcp 1040 ------- 0 0.0 4.0 33 92
r 0.2068 8 4 tcp 1040 ------- 0 0.0 4.0 32 91
+ 0.2068 4 8 ack 40 ------- 0 4.0 0.0 33 100
- 0.2068 4 8 ack 40 ------- 0 4.0 0.0 33 100
r 0.20796 4 8 ack 40 ------- 0 4.0 0.0 33 100
+ 0.20796 8 0 ack 40 ------- 0 4.0 0.0 33 100
- 0.20796 8 0 ack 40 ------- 0 4.0 0.0 33 100
- 0.20896 0 8 tcp 1040 ------- 0 0.0 4.0 35 96
r 0.20912 8 0 ack 40 ------- 0 4.0 0.0 33 100
+ 0.20912 0 8 tcp 1040 ------- 0 0.0 4.0 38 101
+ 0.20912 0 8 tcp 1040 ------- 0 0.0 4.0 39 102
r 0.20996 0 8 tcp 1040 ------- 0 0.0 4.0 34 94
+ 0.20996 8 4 tcp 1040 ------- 0 0.0 4.0 34 94
- 0.20996 8 4 tcp 1040 ------- 0 0.0 4.0 34 94
r 0.21096 8 4 tcp 1040 ------- 0 0.0 4.0 33 92
+ 0.21096 4 8 ack 40 ------- 0 4.0 0.0 33 103
- 0.21096 4 8 ack 40 ------- 0 4.0 0.0 33 103
r 0.21212 4 8 ack 40 ------- 0 4.0 0.0 33 103
+ 0.21212 8 0 ack 40 ------- 0 4.0 0.0 33 103
- 0.21212 8 0 ack 40 ------- 0 4.0 0.0 33 103
- 0.21312 0 8 tcp 1040 ------- 0 0.0 4.0 36 97
r 0.21328 8 0 ack 40 ------- 0 4.0 0.0 33 103
+ 0.21328 0 8 tcp 1040 ------- 0 0.0 4.0 40 104
r 0.21412 0 8 tcp 1040 ------- 0 0.0 4.0 35 96
+ 0.21412 8 4 tcp 1040 ------- 0 0.0 4.0 35 96
- 0.21412 8 4 tcp 1040 ------- 0 0.0 4.0 35 96
r 0.21512 8 4 tcp 1040 ------- 0 0.0 4.0 34 94
+ 0.21512 4 8 ack 40 ------- 0 4.0 0.0 35 105
- 0.21512 4 8 ack 40 ------- 0 4.0 0.0 35 105
r 0.21628 4 8 ack 40 ------- 0 4.0 0.0 35 105
+ 0.21628 8 0 ack 40 ------- 0 4.0 0.0 35 105
- 0.21628 8 0 ack 40 ------- 0 4.0 0.0 35 105
- 0.21728 0 8 tcp 1040 ------- 0 0.0 4.0 37 99
r 0.21744 8 0 ack 40 ------- 0 4.0 0.0 35 105
+ 0.21744 0 8 tcp 1040 ------- 0 0.0 4.0 41 106
+ 0.21744 0 8 tcp 1040 ------- 0 0.0 4.0 42 107
r 0.21828 0 8 tcp 1040 ------- 0 0.0 4.0 36 97
+ 0.21828 8 4 tcp 1040 ------- 0 0.0 4.0 36 97
- 0.21828 8 4 tcp 1040 ------- 0 0.0 4.0 36 97
r 0.21928 8 4 tcp 1040 ------- 0 0.0 4.0 35 96
+ 0.21928 4 8 ack 40 ------- 0 4.0 0.0 35 108
- 0.21928 4 8 ack 40 ------- 0 4.0 0.0 35 108
r 0.22044 4 8 ack 40 ------- 0 4.0 0.0 35 108
+ 0.22044 8 0 ack 40 ------- 0 4.0 0.0 35 108
- 0.22044 8 0 ack 40 ------- 0 4.0 0.0 35 108
- 0.22144 0 8 tcp 1040 ------- 0 0.0 4.0 38 101
r 0.2216 8 0 ack 40 ------- 0 4.0 0.0 35 108
+ 0.2216 0 8 tcp 1040 ---A--- 0 0.0 4.0 43 109
r 0.22244 0 8 tcp 1040 ------- 0 0.0 4.0 37 99
+ 0.22244 8 4 tcp 1040 ------- 0 0.0 4.0 37 99
- 0.22244 8 4 tcp 1040 ------- 0 0.0 4.0 37 99
r 0.22344 8 4 tcp 1040 ------- 0 0.0 4.0 36 97
+ 0.22344 4 8 ack 40 ------- 0 4.0 0.0 37 110
- 0.22344 4 8 ack 40 ------- 0 4.0 0.0 37 110
r 0.2246 4 8 ack 40 ------- 0 4.0 0.0 37 110
+ 0.2246 8 0 ack 40 ------- 0 4.0 0.0 37 110
- 0.2246 8 0 ack 40 ------- 0 4.0 0.0 37 110
- 0.2256 0 8 tcp 1040 ------- 0 0.0 4.0 39 102
r 0.22576 8 0 ack 40 ------- 0 4.0 0.0 37 110
+ 0.22576 0 8 tcp 1040 ------- 0 0.0 4.0 44 111
+ 0.22576 0 8 tcp 1040 ------- 0 0.0 4.0 45 112
r 0.2266 0 8 tcp 1040 ------- 0 0.0 4.0 38 101
+ 0.2266 8 4 tcp 1040 ------- 0 0.0 4.0 38 101
- 0.2266 8 4 tcp 1040 ------- 0 0.0 4.0 38 101
r 0.2276 8 4 tcp 1040 ------- 0 0.0 4.0 37 99
+ 0.2276 4 8 ack 40 ------- 0 4.0 0.0 37 113
- 0.2276 4 8 ack 40 ------- 0 4.0 0.0 37 113
r 0.22876 4 8 ack 40 ------- 0 4.0 0.0 37 113
+ 0.22876 8 0 ack 40 ------- 0 4.0 0.0 37 113
- 0.22876 8 0 ack 40 ------- 0 4.0 0.0 37 113
- 0.22976 0 8 tcp 1040 ------- 0 0.0 4.0 40 104
r 0.22992 8 0 ack 40 ------- 0 4.0 0.0 37 113
+ 0.22992 0 8 tcp 1040 ------- 0 0.0 4.0 46 114
r 0.23076 0 8 tcp 1040 ------- 0 0.0 4.0 39 102
+ 0.23076 8 4 tcp 1040 ------- 0 0.0 4.0 39 102
- 0.23076 8 4 tcp 1040 ------- 0 0.0 4.0 39 102
r 0.23176 8 4 tcp 1040 ------- 0 0.0 4.0 38 101
+ 0.23176 4 8 ack 40 ------- 0 4.0 0.0 43 115
- 0.23176 4 8 ack 40 ------- 0 4.0 0.0 43 115
r 0.23292 4 8 ack 40 ------- 0 4.0 0.0 43 115
+ 0.23292 8 0 ack 40 ------- 0 4.0 0.0 43 115
- 0.23292 8 0 ack 40 ------- 0 4.0 0.0 43 115
- 0.23392 0 8 tcp 1040 ------- 0 0.0 4.0 41 106
r 0.23408 8 0 ack 40 ------- 0 4.0 0.0 43 115
+ 0.23408 0 8 tcp 1040 ------- 0 0.0 4.0 47 116
+ 0.23408 0 8 tcp 1040 ------- 0 0.0 4.0 48 117
+ 0.23408 0 8 tcp 1040 ------- 0 0.0 4.0 49 118
+ 0.23408 0 8 tcp 1040 ------- 0 0.0 4.0 50 119
+ 0.23408 0 8 tcp 1040 ------- 0 0.0 4.0 51 120
d 0.23408 0 8 tcp 1040 ------- 0 0.0 4.0 51 120
+ 0.23408 0 8 tcp 1040 ------- 0 0.0 4.0 52 121
d 0.23408 0 8 tcp 1040 ------- 0 0.0 4.0 52 121
r 0.23492 0 8 tcp 1040 ------- 0 0.0 4.0 40 104
+ 0.23492 8 4 tcp 1040 ------- 0 0.0 4.0 40 104
- 0.23492 8 4 tcp 1040 ------- 0 0.0 4.0 40 104
r 0.23592 8 4 tcp 1040 ------- 0 0.0 4.0 39 102
+ 0.23592 4 8 ack 40 ------- 0 4.0 0.0 43 122
- 0.23592 4 8 ack 40 ------- 0 4.0 0.0 43 122
r 0.23708 4 8 ack 40 ------- 0 4.0 0.0 43 122
+ 0.23708 8 0 ack 40 ------- 0 4.0 0.0 43 122
- 0.23708 8 0 ack 40 ------- 0 4.0 0.0 43 122
- 0.23808 0 8 tcp 1040 ------- 0 0.0 4.0 42 107
r 0.23824 8 0 ack 40 ------- 0 4.0 0.0 43 122
+ 0.23824 0 8 tcp 1040 ------- 0 0.0 4.0 53 123
r 0.23908 0 8 tcp 1040 ------- 0 0.0 4.0 41 106
+ 0.23908 8 4 tcp 1040 ------- 0 0.0 4.0 41 106
- 0.23908 8 4 tcp 1040 ------- 0 0.0 4.0 41 106
r 0.24008 8 4 tcp 1040 ------- 0 0.0 4.0 40 104
+ 0.24008 4 8 ack 40 ------- 0 4.0 0.0 43 124
- 0.24008 4 8 ack 40 ------- 0 4.0 0.0 43 124