V -t * -v 1.0a5 -a 0
A -t * -n 1 -p 0 -o 0xffffffff -c 31 -a 1
A -t * -h 1 -m 2147483647 -s 0
c -t * -i 0 -n blue
c -t * -i 1 -n red
c -t * -i 2 -n green
c -t * -i 3 -n yellow
c -t * -i 4 -n black
c -t * -i 5 -n white
c -t * -i 6 -n pink
c -t * -i 7 -n brown
c -t * -i 8 -n black
c -t * -i 9 -n white
c -t * -i 10 -n pink
c -t * -i 11 -n brown
n -t * -a 0 -s 0 -S UP -v circle -c black -i black
n -t * -a 1 -s 1 -S UP -v circle -c black -i black
n -t * -a 2 -s 2 -S UP -v circle -c black -i black
n -t * -a 3 -s 3 -S UP -v circle -c black -i black
n -t * -a 4 -s 4 -S UP -v circle -c black -i black
n -t * -a 5 -s 5 -S UP -v circle -c black -i black
n -t * -a 6 -s 6 -S UP -v circle -c black -i black
n -t * -a 7 -s 7 -S UP -v circle -c black -i black
n -t * -a 8 -s 8 -S UP -v circle -c black -i black
n -t * -a 9 -s 9 -S UP -v circle -c black -i black
n -t * -a 10 -s 10 -S UP -v circle -c black -i black
n -t * -a 11 -s 11 -S UP -v circle -c black -i black
l -t * -s 0 -d 8 -S UP -r 2000000 -D 0.001 -c black
l -t * -s 1 -d 8 -S UP -r 2000000 -D 0.001 -c black
l -t * -s 2 -d 8 -S UP -r 2000000 -D 0.001 -c black
l -t * -s 3 -d 8 -S UP -r 2000000 -D 0.001 -c black
l -t * -s 8 -d 9 -S UP -r 1000000 -D 0.001 -c black
l -t * -s 9 -d 10 -S UP -r 500000 -D 0.001 -c black
l -t * -s 10 -d 11 -S UP -r 100000 -D 0.001 -c black
l -t * -s 8 -d 4 -S UP -r 2000000 -D 0.001 -c black
l -t * -s 9 -d 5 -S UP -r 1000000 -D 0.001 -c black
l -t * -s 10 -d 6 -S UP -r 500000 -D 0.001 -c black
l -t * -s 11 -d 7 -S UP -r 100000 -D 0.001 -c black
q -t * -s 0 -d 8 -a 0.5
q -t * -s 8 -d 0 -a 0.5
q -t * -s 7 -d 11 -a 0.5
q -t * -s 1 -d 8 -a 0.5
q -t * -s 8 -d 1 -a 0.5
q -t * -s 2 -d 8 -a 0.5
q -t * -s 8 -d 2 -a 0.5
q -t * -s 9 -d 10 -a 0.5
q -t * -s 10 -d 11 -a 0.5
q -t * -s 3 -d 8 -a 0.5
q -t * -s 8 -d 3 -a 0.5
q -t * -s 4 -d 8 -a 0.5
q -t * -s 8 -d 4 -a 0.5
q -t * -s 5 -d 9 -a 0.5
q -t * -s 9 -d 5 -a 0.5
q -t * -s 6 -d 10 -a 0.5
q -t * -s 10 -d 6 -a 0.5
q -t * -s 11 -d 7 -a 0.5
q -t * -s 8 -d 9 -a 0.5
q -t * -s 9 -d 8 -a 0.5
q -t * -s 10 -d 9 -a 0.5
q -t * -s 11 -d 10 -a 0.5
+ -t 0 -s 0 -d 8 -p tcp -e 40 -c 0 -i 0 -a 0 -x {0.0 4.0 0 ------- null}
- -t 0 -s 0 -d 8 -p tcp -e 40 -c 0 -i 0 -a 0 -x {0.0 4.0 0 ------- null}
h -t 0 -s 0 -d 8 -p tcp -e 40 -c 0 -i 0 -a 0 -x {0.0 4.0 -1 ------- null}
r -t 0.00116 -s 0 -d 8 -p tcp -e 40 -c 0 -i 0 -a 0 -x {0.0 4.0 0 ------- null}
+ -t 0.00116 -s 8 -d 4 -p tcp -e 40 -c 0 -i 0 -a 0 -x {0.0 4.0 0 ------- null}
- -t 0.00116 -s 8 -d 4 -p tcp -e 40 -c 0 -i 0 -a 0 -x {0.0 4.0 0 ------- null}
h -t 0.00116 -s 8 -d 4 -p tcp -e 40 -c 0 -i 0 -a 0 -x {0.0 4.0 -1 ------- null}
r -t 0.00232 -s 8 -d 4 -p tcp -e 40 -c 0 -i 0 -a 0 -x {0.0 4.0 0 ------- null}
+ -t 0.00232 -s 4 -d 8 -p ack -e 40 -c 0 -i 1 -a 0 -x {4.0 0.0 0 ------- null}
- -t 0.00232 -s 4 -d 8 -p ack -e 40 -c 0 -i 1 -a 0 -x {4.0 0.0 0 ------- null}
h -t 0.00232 -s 4 -d 8 -p ack -e 40 -c 0 -i 1 -a 0 -x {4.0 0.0 -1 ------- null}
r -t 0.00348 -s 4 -d 8 -p ack -e 40 -c 0 -i 1 -a 0 -x {4.0 0.0 0 ------- null}
+ -t 0.00348 -s 8 -d 0 -p ack -e 40 -c 0 -i 1 -a 0 -x {4.0 0.0 0 ------- null}
- -t 0.00348 -s 8 -d 0 -p ack -e 40 -c 0 -i 1 -a 0 -x {4.0 0.0 0 ------- null}
h -t 0.00348 -s 8 -d 0 -p ack -e 40 -c 0 -i 1 -a 0 -x {4.0 0.0 -1 ------- null}
r -t 0.00464 -s 8 -d 0 -p ack -e 40 -c 0 -i 1 -a 0 -x {4.0 0.0 0 ------- null}
+ -t 0.00464 -s 0 -d 8 -p tcp -e 1040 -c 0 -i 2 -a 0 -x {0.0 4.0 1 ------- null}
- -t 0.00464 -s 0 -d 8 -p tcp -e 1040 -c 0 -i 2 -a 0 -x {0.0 4.0 1 ------- null}
h -t 0.00464 -s 0 -d 8 -p tcp -e 1040 -c 0 -i 2 -a 0 -x {0.0 4.0 -1 ------- null}
+ -t 0.00464 -s 0 -d 8 -p tcp -e 1040 -c 0 -i 3 -a 0 -x {0.0 4.0 2 ------- null}
- -t 0.0088 -s 0 -d 8 -p tcp -e 1040 -c 0 -i 3 -a 0 -x {0.0 4.0 2 ------- null}
h -t 0.0088 -s 0 -d 8 -p tcp -e 1040 -c 0 -i 3 -a 0 -x {0.0 4.0 -1 ------- null}
r -t 0.0098 -s 0 -d 8 -p tcp -e 1040 -c 0 -i 2 -a 0 -x {0.0 4.0 1 ------- null}
+ -t 0.0098 -s 8 -d 4 -p tcp -e 1040 -c 0 -i 2 -a 0 -x {0.0 4.0 1 ------- null}
- -t 0.0098 -s 8 -d 4 -p tcp -e 1040 -c 0 -i 2 -a 0 -x {0.0 4.0 1 ------- null}
h -t 0.0098 -s 8 -d 4 -p tcp -e 1040 -c 0 -i 2 -a 0 -x {0.0 4.0 -1 ------- null}
r -t 0.01396 -s 0 -d 8 -p tcp -e 1040 -c 0 -i 3 -a 0 -x {0.0 4.0 2 ------- null}
+ -t 0.01396 -s 8 -d 4 -p tcp -e 1040 -c 0 -i 3 -a 0 -x {0.0 4.0 2 ------- null}
- -t 0.01396 -s 8 -d 4 -p tcp -e 1040 -c 0 -i 3 -a 0 -x {0.0 4.0 2 ------- null}
h -t 0.01396 -s 8 -d 4 -p tcp -e 1040 -c 0 -i 3 -a 0 -x {0.0 4.0 -1 ------- null}
r -t 0.01496 -s 8 -d 4 -p tcp -e 1040 -c 0 -i 2 -a 0 -x {0.0 4.0 1 ------- null}
+ -t 0.01496 -s 4 -d 8 -p ack -e 40 -c 0 -i 4 -a 0 -x {4.0 0.0 1 ------- null}
- -t 0.01496 -s 4 -d 8 -p ack -e 40 -c 0 -i 4 -a 0 -x {4.0 0.0 1 ------- null}
h -t 0.01496 -s 4 -d 8 -p ack -e 40 -c 0 -i 4 -a 0 -x {4.0 0.0 -1 ------- null}
r -t 0.01612 -s 4 -d 8 -p ack -e 40 -c 0 -i 4 -a 0 -x {4.0 0.0 1 ------- null}
+ -t 0.01612 -s 8 -d 0 -p ack -e 40 -c 0 -i 4 -a 0 -x {4.0 0.0 1 ------- null}
- -t 0.01612 -s 8 -d 0 -p ack -e 40 -c 0 -i 4 -a 0 -x {4.0 0.0 1 ------- null}
h -t 0.01612 -s 8 -d 0 -p ack -e 40 -c 0 -i 4 -a 0 -x {4.0 0.0 -1 ------- null}
r -t 0.01728 -s 8 -d 0 -p ack -e 40 -c 0 -i 4 -a 0 -x {4.0 0.0 1 ------- null}
+ -t 0.01728 -s 0 -d 8 -p tcp -e 1040 -c 0 -i 5 -a 0 -x {0.0 4.0 3 ------- null}
- -t 0.01728 -s 0 -d 8 -p tcp -e 1040 -c 0 -i 5 -a 0 -x {0.0 4.0 3 ------- null}
h -t 0.01728 -s 0 -d 8 -p tcp -e 1040 -c 0 -i 5 -a 0 -x {0.0 4.0 -1 ------- null}
+ -t 0.01728 -s 0 -d 8 -p tcp -e 1040 -c 0 -i 6 -a 0 -x {0.0 4.0 4 ------- null}
r -t 0.01912 -s 8 -d 4 -p tcp -e 1040 -c 0 -i 3 -a 0 -x {0.0 4.0 2 ------- null}
+ -t 0.01912 -s 4 -d 8 -p ack -e 40 -c 0 -i 7 -a 0 -x {4.0 0.0 2 ------- null}
- -t 0.01912 -s 4 -d 8 -p ack -e 40 -c 0 -i 7 -a 0 -x {4.0 0.0 2 ------- null}
h -t 0.01912 -s 4 -d 8 -p ack -e 40 -c 0 -i 7 -a 0 -x {4.0 0.0 -1 ------- null}
r -t 0.02028 -s 4 -d 8 -p ack -e 40 -c 0 -i 7 -a 0 -x {4.0 0.0 2 ------- null}
+ -t 0.02028 -s 8 -d 0 -p ack -e 40 -c 0 -i 7 -a 0 -x {4.0 0.0 2 ------- null}
- -t 0.02028 -s 8 -d 0 -p ack -e 40 -c 0 -i 7 -a 0 -x {4.0 0.0 2 ------- null}
h -t 0.02028 -s 8 -d 0 -p ack -e 40 -c 0 -i 7 -a 0 -x {4.0 0.0 -1 ------- null}
- -t 0.02144 -s 0 -d 8 -p tcp -e 1040 -c 0 -i 6 -a 0 -x {0.0 4.0 4 ------- null}
h -t 0.02144 -s 0 -d 8 -p tcp -e 1040 -c 0 -i 6 -a 0 -x {0.0 4.0 -1 ------- null}
r -t 0.02144 -s 8 -d 0 -p ack -e 40 -c 0 -i 7 -a 0 -x {4.0 0.0 2 ------- null}
+ -t 0.02144 -s 0 -d 8 -p tcp -e 1040 -c 0 -i 8 -a 0 -x {0.0 4.0 5 ------- null}
+ -t 0.02144 -s 0 -d 8 -p tcp -e 1040 -c 0 -i 9 -a 0 -x {0.0 4.0 6 ------- null}
r -t 0.02244 -s 0 -d 8 -p tcp -e 1040 -c 0 -i 5 -a 0 -x {0.0 4.0 3 ------- null}
+ -t 0.02244 -s 8 -d 4 -p tcp -e 1040 -c 0 -i 5 -a 0 -x {0.0 4.0 3 ------- null}
- -t 0.02244 -s 8 -d 4 -p tcp -e 1040 -c 0 -i 5 -a 0 -x {0.0 4.0 3 ------- null}
h -t 0.02244 -s 8 -d 4 -p tcp -e 1040 -c 0 -i 5 -a 0 -x {0.0 4.0 -1 ------- null}
- -t 0.0256 -s 0 -d 8 -p tcp -e 1040 -c 0 -i 8 -a 0 -x {0.0 4.0 5 ------- null}
h -t 0.0256 -s 0 -d 8 -p tcp -e 1040 -c 0 -i 8 -a 0 -x {0.0 4.0 -1 ------- null}
r -t 0.0266 -s 0 -d 8 -p tcp -e 1040 -c 0 -i 6 -a 0 -x {0.0 4.0 4 ------- null}
+ -t 0.0266 -s 8 -d 4 -p tcp -e 1040 -c 0 -i 6 -a 0 -x {0.0 4.0 4 ------- null}
- -t 0.0266 -s 8 -d 4 -p tcp -e 1040 -c 0 -i 6 -a 0 -x {0.0 4.0 4 ------- null}
h -t 0.0266 -s 8 -d 4 -p tcp -e 1040 -c 0 -i 6 -a 0 -x {0.0 4.0 -1 ------- null}
r -t 0.0276 -s 8 -d 4 -p tcp -e 1040 -c 0 -i 5 -a 0 -x {0.0 4.0 3 ------- null}
+ -t 0.0276 -s 4 -d 8 -p ack -e 40 -c 0 -i 10 -a 0 -x {4.0 0.0 3 ------- null}
- -t 0.0276 -s 4 -d 8 -p ack -e 40 -c 0 -i 10 -a 0 -x {4.0 0.0 3 ------- null}
h -t 0.0276 -s 4 -d 8 -p ack -e 40 -c 0 -i 10 -a 0 -x {4.0 0.0 -1 ------- null}
r -t 0.02876 -s 4 -d 8 -p ack -e 40 -c 0 -i 10 -a 0 -x {4.0 0.0 3 ------- null}
+ -t 0.02876 -s 8 -d 0 -p ack -e 40 -c 0 -i 10 -a 0 -x {4.0 0.0 3 ------- null}
- -t 0.02876 -s 8 -d 0 -p ack -e 40 -c 0 -i 10 -a 0 -x {4.0 0.0 3 ------- null}
h -t 0.02876 -s 8 -d 0 -p ack -e 40 -c 0 -i 10 -a 0 -x {4.0 0.0 -1 ------- null}
- -t 0.02976 -s 0 -d 8 -p tcp -e 1040 -c 0 -i 9 -a 0 -x {0.0 4.0 6 ------- null}
h -t 0.02976 -s 0 -d 8 -p tcp -e 1040 -c 0 -i 9 -a 0 -x {0.0 4.0 -1 ------- null}
r -t 0.02992 -s 8 -d 0 -p ack -e 40 -c 0 -i 10 -a 0 -x {4.0 0.0 3 ------- null}
+ -t 0.02992 -s 0 -d 8 -p tcp -e 1040 -c 0 -i 11 -a 0 -x {0.0 4.0 7 ------- null}
+ -t 0.02992 -s 0 -d 8 -p tcp -e 1040 -c 0 -i 12 -a 0 -x {0.0 4.0 8 ------- null}
r -t 0.03076 -s 0 -d 8 -p tcp -e 1040 -c 0 -i 8 -a 0 -x {0.0 4.0 5 ------- null}
+ -t 0.03076 -s 8 -d 4 -p tcp -e 1040 -c 0 -i 8 -a 0 -x {0.0 4.0 5 ------- null}
- -t 0.03076 -s 8 -d 4 -p tcp -e 1040 -c 0 -i 8 -a 0 -x {0.0 4.0 5 ------- null}
h -t 0.03076 -s 8 -d 4 -p tcp -e 1040 -c 0 -i 8 -a 0 -x {0.0 4.0 -1 ------- null}
r -t 0.03176 -s 8 -d 4 -p tcp -e 1040 -c 0 -i 6 -a 0 -x {0.0 4.0 4 ------- null}
+ -t 0.03176 -s 4 -d 8 -p ack -e 40 -c 0 -i 13 -a 0 -x {4.0 0.0 4 ------- null}
- -t 0.03176 -s 4 -d 8 -p ack -e 40 -c 0 -i 13 -a 0 -x {4.0 0.0 4 ------- null}
h -t 0.03176 -s 4 -d 8 -p ack -e 40 -c 0 -i 13 -a 0 -x {4.0 0.0 -1 ------- null}
r -t 0.03292 -s 4 -d 8 -p ack -e 40 -c 0 -i 13 -a 0 -x {4.0 0.0 4 ------- null}
+ -t 0.03292 -s 8 -d 0 -p ack -e 40 -c 0 -i 13 -a 0 -x {4.0 0.0 4 ------- null}
- -t 0.03292 -s 8 -d 0 -p ack -e 40 -c 0 -i 13 -a 0 -x {4.0 0.0 4 ------- null}
h -t 0.03292 -s 8 -d 0 -p ack -e 40 -c 0 -i 13 -a 0 -x {4.0 0.0 -1 ------- null}
- -t 0.03392 -s 0 -d 8 -p tcp -e 1040 -c 0 -i 11 -a 0 -x {0.0 4.0 7 ------- null}
h -t 0.03392 -s 0 -d 8 -p tcp -e 1040 -c 0 -i 11 -a 0 -x {0.0 4.0 -1 ------- null}
r -t 0.03408 -s 8 -d 0 -p ack -e 40 -c 0 -i 13 -a 0 -x {4.0 0.0 4 ------- null}
+ -t 0.03408 -s 0 -d 8 -p tcp -e 1040 -c 0 -i 14 -a 0 -x {0.0 4.0 9 ------- null}
+ -t 0.03408 -s 0 -d 8 -p tcp -e 1040 -c 0 -i 15 -a 0 -x {0.0 4.0 10 ------- null}
r -t 0.03492 -s 0 -d 8 -p tcp -e 1040 -c 0 -i 9 -a 0 -x {0.0 4.0 6 ------- null}
+ -t 0.03492 -s 8 -d 4 -p tcp -e 1040 -c 0 -i 9 -a 0 -x {0.0 4.0 6 ------- null}
- -t 0.03492 -s 8 -d 4 -p tcp -e 1040 -c 0 -i 9 -a 0 -x {0.0 4.0 6 ------- null}
h -t 0.03492 -s 8 -d 4 -p tcp -e 1040 -c 0 -i 9 -a 0 -x {0.0 4.0 -1 ------- null}
r -t 0.03592 -s 8 -d 4 -p tcp -e 1040 -c 0 -i 8 -a 0 -x {0.0 4.0 5 ------- null}
+ -t 0.03592 -s 4 -d 8 -p ack -e 40 -c 0 -i 16 -a 0 -x {4.0 0.0 5 ------- null}
- -t 0.03592 -s 4 -d 8 -p ack -e 40 -c 0 -i 16 -a 0 -x {4.0 0.0 5 ------- null}
h -t 0.03592 -s 4 -d 8 -p ack -e 40 -c 0 -i 16 -a 0 -x {4.0 0.0 -1 ------- null}
r -t 0.03708 -s 4 -d 8 -p ack -e 40 -c 0 -i 16 -a 0 -x {4.0 0.0 5 ------- null}
+ -t 0.03708 -s 8 -d 0 -p ack -e 40 -c 0 -i 16 -a 0 -x {4.0 0.0 5 ------- null}
- -t 0.03708 -s 8 -d 0 -p ack -e 40 -c 0 -i 16 -a 0 -x {4.0 0.0 5 ------- null}
h -t 0.03708 -s 8 -d 0 -p ack -e 40 -c 0 -i 16 -a 0 -x {4.0 0.0 -1 ------- null}
- -t 0.03808 -s 0 -d 8 -p tcp -e 1040 -c 0 -i 12 -a 0 -x {0.0 4.0 8 ------- null}
h -t 0.03808 -s 0 -d 8 -p tcp -e 1040 -c 0 -i 12 -a 0 -x {0.0 4.0 -1 ------- null}
r -t 0.03824 -s 8 -d 0 -p ack -e 40 -c 0 -i 16 -a 0 -x {4.0 0.0 5 ------- null}
+ -t 0.03824 -s 0 -d 8 -p tcp -e 1040 -c 0 -i 17 -a 0 -x {0.0 4.0 11 ------- null}
+ -t 0.03824 -s 0 -d 8 -p tcp -e 1040 -c 0 -i 18 -a 0 -x {0.0 4.0 12 ------- null}
r -t 0.03908 -s 0 -d 8 -p tcp -e 1040 -c 0 -i 11 -a 0 -x {0.0 4.0 7 ------- null}
+ -t 0.03908 -s 8 -d 4 -p tcp -e 1040 -c 0 -i 11 -a 0 -x {0.0 4.0 7 ------- null}
- -t 0.03908 -s 8 -d 4 -p tcp -e 1040 -c 0 -i 11 -a 0 -x {0.0 4.0 7 ------- null}
h -t 0.03908 -s 8 -d 4 -p tcp -e 1040 -c 0 -i 11 -a 0 -x {0.0 4.0 -1 ------- null}
r -t 0.04008 -s 8 -d 4 -p tcp -e 1040 -c 0 -i 9 -a 0 -x {0.0 4.0 6 ------- null}
+ -t 0.04008 -s 4 -d 8 -p ack -e 40 -c 0 -i 19 -a 0 -x {4.0 0.0 6 ------- null}
- -t 0.04008 -s 4 -d 8 -p ack -e 40 -c 0 -i 19 -a 0 -x {4.0 0.0 6 ------- null}
h -t 0.04008 -s 4 -d 8 -p ack -e 40 -c 0 -i 19 -a 0 -x {4.0 0.0 -1 ------- null}
r -t 0.04124 -s 4 -d 8 -p ack -e 40 -c 0 -i 19 -a 0 -x {4.0 0.0 6 ------- null}
+ -t 0.04124 -s 8 -d 0 -p ack -e 40 -c 0 -i 19 -a 0 -x {4.0 0.0 6 ------- null}
- -t 0.04124 -s 8 -d 0 -p ack -e 40 -c 0 -i 19 -a 0 -x {4.0 0.0 6 ------- null}
h -t 0.04124 -s 8 -d 0 -p ack -e 40 -c 0 -i 19 -a 0 -x {4.0 0.0 -1 ------- null}
- -t 0.04224 -s 0 -d 8 -p tcp -e 1040 -c 0 -i 14 -a 0 -x {0.0 4.0 9 ------- null}
h -t 0.04224 -s 0 -d 8 -p tcp -e 1040 -c 0 -i 14 -a 0 -x {0.0 4.0 -1 ------- null}
r -t 0.0424 -s 8 -d 0 -p ack -e 40 -c 0 -i 19 -a 0 -x {4.0 0.0 6 ------- null}
+ -t 0.0424 -s 0 -d 8 -p tcp -e 1040 -c 0 -i 20 -a 0 -x {0.0 4.0 13 ------- null}
+ -t 0.0424 -s 0 -d 8 -p tcp -e 1040 -c 0 -i 21 -a 0 -x {0.0 4.0 14 ------- null}
r -t 0.04324 -s 0 -d 8 -p tcp -e 1040 -c 0 -i 12 -a 0 -x {0.0 4.0 8 ------- null}
+ -t 0.04324 -s 8 -d 4 -p tcp -e 1040 -c 0 -i 12 -a 0 -x {0.0 4.0 8 ------- null}
- -t 0.04324 -s 8 -d 4 -p tcp -e 1040 -c 0 -i 12 -a 0 -x {0.0 4.0 8 ------- null}
h -t 0.04324 -s 8 -d 4 -p tcp -e 1040 -c 0 -i 12 -a 0 -x {0.0 4.0 -1 ------- null}
r -t 0.04424 -s 8 -d 4 -p tcp -e 1040 -c 0 -i 11 -a 0 -x {0.0 4.0 7 ------- null}
+ -t 0.04424 -s 4 -d 8 -p ack -e 40 -c 0 -i 22 -a 0 -x {4.0 0.0 7 ------- null}
- -t 0.04424 -s 4 -d 8 -p ack -e 40 -c 0 -i 22 -a 0 -x {4.0 0.0 7 ------- null}
h -t 0.04424 -s 4 -d 8 -p ack -e 40 -c 0 -i 22 -a 0 -x {4.0 0.0 -1 ------- null}
r -t 0.0454 -s 4 -d 8 -p ack -e 40 -c 0 -i 22 -a 0 -x {4.0 0.0 7 ------- null}
+ -t 0.0454 -s 8 -d 0 -p ack -e 40 -c 0 -i 22 -a 0 -x {4.0 0.0 7 ------- null}
- -t 0.0454 -s 8 -d 0 -p ack -e 40 -c 0 -i 22 -a 0 -x {4.0 0.0 7 ------- null}
h -t 0.0454 -s 8 -d 0 -p ack -e 40 -c 0 -i 22 -a 0 -x {4.0 0.0 -1 ------- null}
- -t 0.0464 -s 0 -d 8 -p tcp -e 1040 -c 0 -i 15 -a 0 -x {0.0 4.0 10 ------- null}
h -t 0.0464 -s 0 -d 8 -p tcp -e 1040 -c 0 -i 15 -a 0 -x {0.0 4.0 -1 ------- null}
r -t 0.04656 -s 8 -d 0 -p ack -e 40 -c 0 -i 22 -a 0 -x {4.0 0.0 7 ------- null}
+ -t 0.04656 -s 0 -d 8 -p tcp -e 1040 -c 0 -i 23 -a 0 -x {0.0 4.0 15 ------- null}
+ -t 0.04656 -s 0 -d 8 -p tcp -e 1040 -c 0 -i 24 -a 0 -x {0.0 4.0 16 ------- null}
r -t 0.0474 -s 0 -d 8 -p tcp -e 1040 -c 0 -i 14 -a 0 -x {0.0 4.0 9 ------- null}
+ -t 0.0474 -s 8 -d 4 -p tcp -e 1040 -c 0 -i 14 -a 0 -x {0.0 4.0 9 ------- null}
- -t 0.0474 -s 8 -d 4 -p tcp -e 1040 -c 0 -i 14 -a 0 -x {0.0 4.0 9 ------- null}
h -t 0.0474 -s 8 -d 4 -p tcp -e 1040 -c 0 -i 14 -a 0 -x {0.0 4.0 -1 ------- null}
r -t 0.0484 -s 8 -d 4 -p tcp -e 1040 -c 0 -i 12 -a 0 -x {0.0 4.0 8 ------- null}
+ -t 0.0484 -s 4 -d 8 -p ack -e 40 -c 0 -i 25 -a 0 -x {4.0 0.0 8 ------- null}
- -t 0.0484 -s 4 -d 8 -p ack -e 40 -c 0 -i 25 -a 0 -x {4.0 0.0 8 ------- null}
h -t 0.0484 -s 4 -d 8 -p ack -e 40 -c 0 -i 25 -a 0 -x {4.0 0.0 -1 ------- null}
r -t 0.04956 -s 4 -d 8 -p ack -e 40 -c 0 -i 25 -a 0 -x {4.0 0.0 8 ------- null}
+ -t 0.04956 -s 8 -d 0 -p ack -e 40 -c 0 -i 25 -a 0 -x {4.0 0.0 8 ------- null}
- -t 0.04956 -s 8 -d 0 -p ack -e 40 -c 0 -i 25 -a 0 -x {4.0 0.0 8 ------- null}
h -t 0.04956 -s 8 -d 0 -p ack -e 40 -c 0 -i 25 -a 0 -x {4.0 0.0 -1 ------- null}
- -t 0.05056 -s 0 -d 8 -p tcp -e 1040 -c 0 -i 17 -a 0 -x {0.0 4.0 11 ------- null}
h -t 0.05056 -s 0 -d 8 -p tcp -e 1040 -c 0 -i 17 -a 0 -x {0.0 4.0 -1 ------- null}
r -t 0.05072 -s 8 -d 0 -p ack -e 40 -c 0 -i 25 -a 0 -x {4.0 0.0 8 ------- null}
+ -t 0.05072 -s 0 -d 8 -p tcp -e 1040 -c 0 -i 26 -a 0 -x {0.0 4.0 17 ------- null}
+ -t 0.05072 -s 0 -d 8 -p tcp -e 1040 -c 0 -i 27 -a 0 -x {0.0 4.0 18 ------- null}
r -t 0.05156 -s 0 -d 8 -p tcp -e 1040 -c 0 -i 15 -a 0 -x {0.0 4.0 10 ------- null}
+ -t 0.05156 -s 8 -d 4 -p tcp -e 1040 -c 0 -i 15 -a 0 -x {0.0 4.0 10 ------- null}
- -t 0.05156 -s 8 -d 4 -p tcp -e 1040 -c 0 -i 15 -a 0 -x {0.0 4.0 10 ------- null}
h -t 0.05156 -s 8 -d 4 -p tcp -e 1040 -c 0 -i 15 -a 0 -x {0.0 4.0 -1 ------- null}
r -t 0.05256 -s 8 -d 4 -p tcp -e 1040 -c 0 -i 14 -a 0 -x {0.0 4.0 9 ------- null}
+ -t 0.05256 -s 4 -d 8 -p ack -e 40 -c 0 -i 28 -a 0 -x {4.0 0.0 9 ------- null}
- -t 0.05256 -s 4 -d 8 -p ack -e 40 -c 0 -i 28 -a 0 -x {4.0 0.0 9 ------- null}
h -t 0.05256 -s 4 -d 8 -p ack -e 40 -c 0 -i 28 -a 0 -x {4.0 0.0 -1 ------- null}
r -t 0.05372 -s 4 -d 8 -p ack -e 40 -c 0 -i 28 -a 0 -x {4.0 0.0 9 ------- null}
+ -t 0.05372 -s 8 -d 0 -p ack -e 40 -c 0 -i 28 -a 0 -x {4.0 0.0 9 ------- null}
- -t 0.05372 -s 8 -d 0 -p ack -e 40 -c 0 -i 28 -a 0 -x {4.0 0.0 9 ------- null}
h -t 0.05372 -s 8 -d 0 -p ack -e 40 -c 0 -i 28 -a 0 -x {4.0 0.0 -1 ------- null}
- -t 0.05472 -s 0 -d 8 -p tcp -e 1040 -c 0 -i 18 -a 0 -x {0.0 4.0 12 ------- null}
h -t 0.05472 -s 0 -d 8 -p tcp -e 1040 -c 0 -i 18 -a 0 -x {0.0 4.0 -1 ------- null}
r -t 0.05488 -s 8 -d 0 -p ack -e 40 -c 0 -i 28 -a 0 -x {4.0 0.0 9 ------- null}
+ -t 0.05488 -s 0 -d 8 -p tcp -e 1040 -c 0 -i 29 -a 0 -x {0.0 4.0 19 ------- null}
+ -t 0.05488 -s 0 -d 8 -p tcp -e 1040 -c 0 -i 30 -a 0 -x {0.0 4.0 20 ------- null}
r -t 0.05572 -s 0 -d 8 -p tcp -e 1040 -c 0 -i 17 -a 0 -x {0.0 4.0 11 ------- null}
+ -t 0.05572 -s 8 -d 4 -p tcp -e 1040 -c 0 -i 17 -a 0 -x {0.0 4.0 11 ------- null}
- -t 0.05572 -s 8 -d 4 -p tcp -e 1040 -c 0 -i 17 -a 0 -x {0.0 4.0 11 ------- null}
h -t 0.05572 -s 8 -d 4 -p tcp -e 1040 -c 0 -i 17 -a 0 -x {0.0 4.0 -1 ------- null}
r -t 0.05672 -s 8 -d 4 -p tcp -e 1040 -c 0 -i 15 -a 0 -x {0.0 4.0 10 ------- null}
+ -t 0.05672 -s 4 -d 8 -p ack -e 40 -c 0 -i 31 -a 0 -x {4.0 0.0 10 ------- null}
- -t 0.05672 -s 4 -d 8 -p ack -e 40 -c 0 -i 31 -a 0 -x {4.0 0.0 10 ------- null}
h -t 0.05672 -s 4 -d 8 -p ack -e 40 -c 0 -i 31 -a 0 -x {4.0 0.0 -1 ------- null}
r -t 0.05788 -s 4 -d 8 -p ack -e 40 -c 0 -i 31 -a 0 -x {4.0 0.0 10 ------- null}
+ -t 0.05788 -s 8 -d 0 -p ack -e 40 -c 0 -i 31 -a 0 -x {4.0 0.0 10 ------- null}
- -t 0.05788 -s 8 -d 0 -p ack -e 40 -c 0 -i 31 -a 0 -x {4.0 0.0 10 ------- null}
h -t 0.05788 -s 8 -d 0 -p ack -e 40 -c 0 -i 31 -a 0 -x {4.0 0.0 -1 ------- null}
- -t 0.05888 -s 0 -d 8 -p tcp -e 1040 -c 0 -i 20 -a 0 -x {0.0 4.0 13 ------- null}
h -t 0.05888 -s 0 -d 8 -p tcp -e 1040 -c 0 -i 20 -a 0 -x {0.0 4.0 -1 ------- null}
r -t 0.05904 -s 8 -d 0 -p ack -e 40 -c 0 -i 31 -a 0 -x {4.0 0.0 10 ------- null}
+ -t 0.05904 -s 0 -d 8 -p tcp -e 1040 -c 0 -i 32 -a 0 -x {0.0 4.0 21 ------- null}
+ -t 0.05904 -s 0 -d 8 -p tcp -e 1040 -c 0 -i 33 -a 0 -x {0.0 4.0 22 ------- null}
r -t 0.05988 -s 0 -d 8 -p tcp -e 1040 -c 0 -i 18 -a 0 -x {0.0 4.0 12 ------- null}
+ -t 0.05988 -s 8 -d 4 -p tcp -e 1040 -c 0 -i 18 -a 0 -x {0.0 4.0 12 ------- null}
- -t 0.05988 -s 8 -d 4 -p tcp -e 1040 -c 0 -i 18 -a 0 -x {0.0 4.0 12 ------- null}
h -t 0.05988 -s 8 -d 4 -p tcp -e 1040 -c 0 -i 18 -a 0 -x {0.0 4.0 -1 ------- null}
r -t 0.06088 -s 8 -d 4 -p tcp -e 1040 -c 0 -i 17 -a 0 -x {0.0 4.0 11 ------- null}
+ -t 0.06088 -s 4 -d 8 -p ack -e 40 -c 0 -i 34 -a 0 -x {4.0 0.0 11 ------- null}
- -t 0.06088 -s 4 -d 8 -p ack -e 40 -c 0 -i 34 -a 0 -x {4.0 0.0 11 ------- null}
h -t 0.06088 -s 4 -d 8 -p ack -e 40 -c 0 -i 34 -a 0 -x {4.0 0.0 -1 ------- null}
r -t 0.06204 -s 4 -d 8 -p ack -e 40 -c 0 -i 34 -a 0 -x {4.0 0.0 11 ------- null}
+ -t 0.06204 -s 8 -d 0 -p ack -e 40 -c 0 -i 34 -a 0 -x {4.0 0.0 11 ------- null}
- -t 0.06204 -s 8 -d 0 -p ack -e 40 -c 0 -i 34 -a 0 -x {4.0 0.0 11 ------- null}
h -t 0.06204 -s 8 -d 0 -p ack -e 40 -c 0 -i 34 -a 0 -x {4.0 0.0 -1 ------- null}
- -t 0.06304 -s 0 -d 8 -p tcp -e 1040 -c 0 -i 21 -a 0 -x {0.0 4.0 14 ------- null}
h -t 0.06304 -s 0 -d 8 -p tcp -e 1040 -c 0 -i 21 -a 0 -x {0.0 4.0 -1 ------- null}
r -t 0.0632 -s 8 -d 0 -p ack -e 40 -c 0 -i 34 -a 0 -x {4.0 0.0 11 ------- null}
+ -t 0.0632 -s 0 -d 8 -p tcp -e 1040 -c 0 -i 35 -a 0 -x {0.0 4.0 23 ------- null}
+ -t 0.0632 -s 0 -d 8 -p tcp -e 1040 -c 0 -i 36 -a 0 -x {0.0 4.0 24 ------- null}
d -t 0.0632 -s 0 -d 8 -p tcp -e 1040 -c 0 -i 36 -a 0 -x {0.0 4.0 24 ------- null}
r -t 0.06404 -s 0 -d 8 -p tcp -e 1040 -c 0 -i 20 -a 0 -x {0.0 4.0 13 ------- null}
+ -t 0.06404 -s 8 -d 4 -p tcp -e 1040 -c 0 -i 20 -a 0 -x {0.0 4.0 13 ------- null}
- -t 0.06404 -s 8 -d 4 -p tcp -e 1040 -c 0 -i 20 -a 0 -x {0.0 4.0 13 ------- null}
h -t 0.06404 -s 8 -d 4 -p tcp -e 1040 -c 0 -i 20 -a 0 -x {0.0 4.0 -1 ------- null}
r -t 0.06504 -s 8 -d 4 -p tcp -e 1040 -c 0 -i 18 -a 0 -x {0.0 4.0 12 ------- null}
+ -t 0.06504 -s 4 -d 8 -p ack -e 40 -c 0 -i 37 -a 0 -x {4.0 0.0 12 ------- null}
- -t 0.06504 -s 4 -d 8 -p ack -e 40 -c 0 -i 37 -a 0 -x {4.0 0.0 12 ------- null}
h -t 0.06504 -s 4 -d 8 -p ack -e 40 -c 0 -i 37 -a 0 -x {4.0 0.0 -1 ------- null}
r -t 0.0662 -s 4 -d 8 -p ack -e 40 -c 0 -i 37 -a 0 -x {4.0 0.0 12 ------- null}
+ -t 0.0662 -s 8 -d 0 -p ack -e 40 -c 0 -i 37 -a 0 -x {4.0 0.0 12 ------- null}
- -t 0.0662 -s 8 -d 0 -p ack -e 40 -c 0 -i 37 -a 0 -x {4.0 0.0 12 ------- null}
h -t 0.0662 -s 8 -d 0 -p ack -e 40 -c 0 -i 37 -a 0 -x {4.0 0.0 -1 ------- null}
- -t 0.0672 -s 0 -d 8 -p tcp -e 1040 -c 0 -i 23 -a 0 -x {0.0 4.0 15 ------- null}
h -t 0.0672 -s 0 -d 8 -p tcp -e 1040 -c 0 -i 23 -a 0 -x {0.0 4.0 -1 ------- null}
r -t 0.06736 -s 8 -d 0 -p ack -e 40 -c 0 -i 37 -a 0 -x {4.0 0.0 12 ------- null}
+ -t 0.06736 -s 0 -d 8 -p tcp -e 1040 -c 0 -i 38 -a 0 -x {0.0 4.0 25 ------- null}
+ -t 0.06736 -s 0 -d 8 -p tcp -e 1040 -c 0 -i 39 -a 0 -x {0.0 4.0 26 ------- null}
d -t 0.06736 -s 0 -d 8 -p tcp -e 1040 -c 0 -i 39 -a 0 -x {0.0 4.0 26 ------- null}
r -t 0.0682 -s 0 -d 8 -p tcp -e 1040 -c 0 -i 21 -a 0 -x {0.0 4.0 14 ------- null}
+ -t 0.0682 -s 8 -d 4 -p tcp -e 1040 -c 0 -i 21 -a 0 -x {0.0 4.0 14 ------- null}
- -t 0.0682 -s 8 -d 4 -p tcp -e 1040 -c 0 -i 21 -a 0 -x {0.0 4.0 14 ------- null}
h -t 0.0682 -s 8 -d 4 -p tcp -e 1040 -c 0 -i 21 -a 0 -x {0.0 4.0 -1 ------- null}
r -t 0.0692 -s 8 -d 4 -p tcp -e 1040 -c 0 -i 20 -a 0 -x {0.0 4.0 13 ------- null}
+ -t 0.0692 -s 4 -d 8 -p ack -e 40 -c 0 -i 40 -a 0 -x {4.0 0.0 13 ------- null}
- -t 0.0692 -s 4 -d 8 -p ack -e 40 -c 0 -i 40 -a 0 -x {4.0 0.0 13 ------- null}
h -t 0.0692 -s 4 -d 8 -p ack -e 40 -c 0 -i 40 -a 0 -x {4.0 0.0 -1 ------- null}
r -t 0.07036 -s 4 -d 8 -p ack -e 40 -c 0 -i 40 -a 0 -x {4.0 0.0 13 ------- null}
+ -t 0.07036 -s 8 -d 0 -p ack -e 40 -c 0 -i 40 -a 0 -x {4.0 0.0 13 ------- null}
- -t 0.07036 -s 8 -d 0 -p ack -e 40 -c 0 -i 40 -a 0 -x {4.0 0.0 13 ------- null}
h -t 0.07036 -s 8 -d 0 -p ack -e 40 -c 0 -i 40 -a 0 -x {4.0 0.0 -1 ------- null}
- -t 0.07136 -s 0 -d 8 -p tcp -e 1040 -c 0 -i 24 -a 0 -x {0.0 4.0 16 ------- null}
h -t 0.07136 -s 0 -d 8 -p tcp -e 1040 -c 0 -i 24 -a 0 -x {0.0 4.0 -1 ------- null}
r -t 0.07152 -s 8 -d 0 -p ack -e 40 -c 0 -i 40 -a 0 -x {4.0 0.0 13 ------- null}
+ -t 0.07152 -s 0 -d 8 -p tcp -e 1040 -c 0 -i 41 -a 0 -x {0.0 4.0 27 ------- null}
+ -t 0.07152 -s 0 -d 8 -p tcp -e 1040 -c 0 -i 42 -a 0 -x {0.0 4.0 28 ------- null}
d -t 0.07152 -s 0 -d 8 -p tcp -e 1040 -c 0 -i 42 -a 0 -x {0.0 4.0 28 ------- null}
r -t 0.07236 -s 0 -d 8 -p tcp -e 1040 -c 0 -i 23 -a 0 -x {0.0 4.0 15 ------- null}
+ -t 0.07236 -s 8 -d 4 -p tcp -e 1040 -c 0 -i 23 -a 0 -x {0.0 4.0 15 ------- null}
- -t 0.07236 -s 8 -d 4 -p tcp -e 1040 -c 0 -i 23 -a 0 -x {0.0 4.0 15 ------- null}
h -t 0.07236 -s 8 -d 4 -p tcp -e 1040 -c 0 -i 23 -a 0 -x {0.0 4.0 -1 ------- null}
r -t 0.07336 -s 8 -d 4 -p tcp -e 1040 -c 0 -i 21 -a 0 -x {0.0 4.0 14 ------- null}
+ -t 0.07336 -s 4 -d 8 -p ack -e 40 -c 0 -i 43 -a 0 -x {4.0 0.0 14 ------- null}
- -t 0.07336 -s 4 -d 8 -p ack -e 40 -c 0 -i 43 -a 0 -x {4.0 0.0 14 ------- null}
h -t 0.07336 -s 4 -d 8 -p ack -e 40 -c 0 -i 43 -a 0 -x {4.0 0.0 -1 ------- null}
r -t 0.07452 -s 4 -d 8 -p ack -e 40 -c 0 -i 43 -a 0 -x {4.0 0.0 14 ------- null}
+ -t 0.07452 -s 8 -d 0 -p ack -e 40 -c 0 -i 43 -a 0 -x {4.0 0.0 14 ------- null}
- -t 0.07452 -s 8 -d 0 -p ack -e 40 -c 0 -i 43 -a 0 -x {4.0 0.0 14 ------- null}
h -t 0.07452 -s 8 -d 0 -p ack -e 40 -c 0 -i 43 -a 0 -x {4.0 0.0 -1 ------- null}
- -t 0.07552 -s 0 -d 8 -p tcp -e 1040 -c 0 -i 26 -a 0 -x {0.0 4.0 17 ------- null}
h -t 0.07552 -s 0 -d 8 -p tcp -e 1040 -c 0 -i 26 -a 0 -x {0.0 4.0 -1 ------- null}
r -t 0.07568 -s 8 -d 0 -p ack -e 40 -c 0 -i 43 -a 0 -x {4.0 0.0 14 ------- null}
+ -t 0.07568 -s 0 -d 8 -p tcp -e 1040 -c 0 -i 44 -a 0 -x {0.0 4.0 29 ------- null}
+ -t 0.07568 -s 0 -d 8 -p tcp -e 1040 -c 0 -i 45 -a 0 -x {0.0 4.0 30 ------- null}
d -t 0.07568 -s 0 -d 8 -p tcp -e 1040 -c 0 -i 45 -a 0 -x {0.0 4.0 30 ------- null}
r -t 0.07652 -s 0 -d 8 -p tcp -e 1040 -c 0 -i 24 -a 0 -x {0.0 4.0 16 ------- null}
+ -t 0.07652 -s 8 -d 4 -p tcp -e 1040 -c 0 -i 24 -a 0 -x {0.0 4.0 16 ------- null}
- -t 0.07652 -s 8 -d 4 -p tcp -e 1040 -c 0 -i 24 -a 0 -x {0.0 4.0 16 ------- null}
h -t 0.07652 -s 8 -d 4 -p tcp -e 1040 -c 0 -i 24 -a 0 -x {0.0 4.0 -1 ------- null}
r -t 0.07752 -s 8 -d 4 -p tcp -e 1040 -c 0 -i 23 -a 0 -x {0.0 4.0 15 ------- null}
+ -t 0.07752 -s 4 -d 8 -p ack -e 40 -c 0 -i 46 -a 0 -x {4.0 0.0 15 ------- null}
- -t 0.07752 -s 4 -d 8 -p ack -e 40 -c 0 -i 46 -a 0 -x {4.0 0.0 15 ------- null}
h -t 0.07752 -s 4 -d 8 -p ack -e 40 -c 0 -i 46 -a 0 -x {4.0 0.0 -1 ------- null}
r -t 0.07868 -s 4 -d 8 -p ack -e 40 -c 0 -i 46 -a 0 -x {4.0 0.0 15 ------- null}
+ -t 0.07868 -s 8 -d 0 -p ack -e 40 -c 0 -i 46 -a 0 -x {4.0 0.0 15 ------- null}
- -t 0.07868 -s 8 -d 0 -p ack -e 40 -c 0 -i 46 -a 0 -x {4.0 0.0 15 ------- null}
h -t 0.07868 -s 8 -d 0 -p ack -e 40 -c 0 -i 46 -a 0 -x {4.0 0.0 -1 ------- null}
- -t 0.07968 -s 0 -d 8 -p tcp -e 1040 -c 0 -i 27 -a 0 -x {0.0 4.0 18 ------- null}
h -t 0.07968 -s 0 -d 8 -p tcp -e 1040 -c 0 -i 27 -a 0 -x {0.0 4.0 -1 ------- null}
r -t 0.07984 -s 8 -d 0 -p ack -e 40 -c 0 -i 46 -a 0 -x {4.0 0.0 15 ------- null}
+ -t 0.07984 -s 0 -d 8 -p tcp -e 1040 -c 0 -i 47 -a 0 -x {0.0 4.0 31 ------- null}
+ -t 0.07984 -s 0 -d 8 -p tcp -e 1040 -c 0 -i 48 -a 0 -x {0.0 4.0 32 ------- null}
d -t 0.07984 -s 0 -d 8 -p tcp -e 1040 -c 0 -i 48 -a 0 -x {0.0 4.0 32 ------- null}
r -t 0.08068 -s 0 -d 8 -p tcp -e 1040 -c 0 -i 26 -a 0 -x {0.0 4.0 17 ------- null}
+ -t 0.08068 -s 8 -d 4 -p tcp -e 1040 -c 0 -i 26 -a 0 -x {0.0 4.0 17 ------- null}
- -t 0.08068 -s 8 -d 4 -p tcp -e 1040 -c 0 -i 26 -a 0 -x {0.0 4.0 17 ------- null}
h -t 0.08068 -s 8 -d 4 -p tcp -e 1040 -c 0 -i 26 -a 0 -x {0.0 4.0 -1 ------- null}
r -t 0.08168 -s 8 -d 4 -p tcp -e 1040 -c 0 -i 24 -a 0 -x {0.0 4.0 16 ------- null}
+ -t 0.08168 -s 4 -d 8 -p ack -e 40 -c 0 -i 49 -a 0 -x {4.0 0.0 16 ------- null}
- -t 0.08168 -s 4 -d 8 -p ack -e 40 -c 0 -i 49 -a 0 -x {4.0 0.0 16 ------- null}
h -t 0.08168 -s 4 -d 8 -p ack -e 40 -c 0 -i 49 -a 0 -x {4.0 0.0 -1 ------- null}
r -t 0.08284 -s 4 -d 8 -p ack -e 40 -c 0 -i 49 -a 0 -x {4.0 0.0 16 ------- null}
+ -t 0.08284 -s 8 -d 0 -p ack -e 40 -c 0 -i 49 -a 0 -x {4.0 0.0 16 ------- null}
- -t 0.08284 -s 8 -d 0 -p ack -e 40 -c 0 -i 49 -a 0 -x {4.0 0.0 16 ------- null}
h -t 0.08284 -s 8 -d 0 -p ack -e 40 -c 0 -i 49 -a 0 -x {4.0 0.0 -1 ------- null}
- -t 0.08384 -s 0 -d 8 -p tcp -e 1040 -c 0 -i 29 -a 0 -x {0.0 4.0 19 ------- null}
h -t 0.08384 -s 0 -d 8 -p tcp -e 1040 -c 0 -i 29 -a 0 -x {0.0 4.0 -1 ------- null}
r -t 0.084 -s 8 -d 0 -p ack -e 40 -c 0 -i 49 -a 0 -x {4.0 0.0 16 ------- null}
+ -t 0.084 -s 0 -d 8 -p tcp -e 1040 -c 0 -i 50 -a 0 -x {0.0 4.0 33 ------- null}
+ -t 0.084 -s 0 -d 8 -p tcp -e 1040 -c 0 -i 51 -a 0 -x {0.0 4.0 34 ------- null}
d -t 0.084 -s 0 -d 8 -p tcp -e 1040 -c 0 -i 51 -a 0 -x {0.0 4.0 34 ------- null}
r -t 0.08484 -s 0 -d 8 -p tcp -e 1040 -c 0 -i 27 -a 0 -x {0.0 4.0 18 ------- null}
+ -t 0.08484 -s 8 -d 4 -p tcp -e 1040 -c 0 -i 27 -a 0 -x {0.0 4.0 18 ------- null}
- -t 0.08484 -s 8 -d 4 -p tcp -e 1040 -c 0 -i 27 -a 0 -x {0.0 4.0 18 ------- null}
h -t 0.08484 -s 8 -d 4 -p tcp -e 1040 -c 0 -i 27 -a 0 -x {0.0 4.0 -1 ------- null}
r -t 0.08584 -s 8 -d 4 -p tcp -e 1040 -c 0 -i 26 -a 0 -x {0.0 4.0 17 ------- null}
+ -t 0.08584 -s 4 -d 8 -p ack -e 40 -c 0 -i 52 -a 0 -x {4.0 0.0 17 ------- null}
- -t 0.08584 -s 4 -d 8 -p ack -e 40 -c 0 -i 52 -a 0 -x {4.0 0.0 17 ------- null}
h -t 0.08584 -s 4 -d 8 -p ack -e 40 -c 0 -i 52 -a 0 -x {4.0 0.0 -1 ------- null}
r -t 0.087 -s 4 -d 8 -p ack -e 40 -c 0 -i 52 -a 0 -x {4.0 0.0 17 ------- null}
+ -t 0.087 -s 8 -d 0 -p ack -e 40 -c 0 -i 52 -a 0 -x {4.0 0.0 17 ------- null}
- -t 0.087 -s 8 -d 0 -p ack -e 40 -c 0 -i 52 -a 0 -x {4.0 0.0 17 ------- null}
h -t 0.087 -s 8 -d 0 -p ack -e 40 -c 0 -i 52 -a 0 -x {4.0 0.0 -1 ------- null}
- -t 0.088 -s 0 -d 8 -p tcp -e 1040 -c 0 -i 30 -a 0 -x {0.0 4.0 20 ------- null}
h -t 0.088 -s 0 -d 8 -p tcp -e 1040 -c 0 -i 30 -a 0 -x {0.0 4.0 -1 ------- null}
r -t 0.08816 -s 8 -d 0 -p ack -e 40 -c 0 -i 52 -a 0 -x {4.0 0.0 17 ------- null}
+ -t 0.08816 -s 0 -d 8 -p tcp -e 1040 -c 0 -i 53 -a 0 -x {0.0 4.0 35 ------- null}
+ -t 0.08816 -s 0 -d 8 -p tcp -e 1040 -c 0 -i 54 -a 0 -x {0.0 4.0 36 ------- null}
d -t 0.08816 -s 0 -d 8 -p tcp -e 1040 -c 0 -i 54 -a 0 -x {0.0 4.0 36 ------- null}
r -t 0.089 -s 0 -d 8 -p tcp -e 1040 -c 0 -i 29 -a 0 -x {0.0 4.0 19 ------- null}
+ -t 0.089 -s 8 -d 4 -p tcp -e 1040 -c 0 -i 29 -a 0 -x {0.0 4.0 19 ------- null}
- -t 0.089 -s 8 -d 4 -p tcp -e 1040 -c 0 -i 29 -a 0 -x {0.0 4.0 19 ------- null}
h -t 0.089 -s 8 -d 4 -p tcp -e 1040 -c 0 -i 29 -a 0 -x {0.0 4.0 -1 ------- null}
r -t 0.09 -s 8 -d 4 -p tcp -e 1040 -c 0 -i 27 -a 0 -x {0.0 4.0 18 ------- null}
+ -t 0.09 -s 4 -d 8 -p ack -e 40 -c 0 -i 55 -a 0 -x {4.0 0.0 18 ------- null}
- -t 0.09 -s 4 -d 8 -p ack -e 40 -c 0 -i 55 -a 0 -x {4.0 0.0 18 ------- null}
h -t 0.09 -s 4 -d 8 -p ack -e 40 -c 0 -i 55 -a 0 -x {4.0 0.0 -1 ------- null}
r -t 0.09116 -s 4 -d 8 -p ack -e 40 -c 0 -i 55 -a 0 -x {4.0 0.0 18 ------- null}
+ -t 0.09116 -s 8 -d 0 -p ack -e 40 -c 0 -i 55 -a 0 -x {4.0 0.0 18 ------- null}
- -t 0.09116 -s 8 -d 0 -p ack -e 40 -c 0 -i 55 -a 0 -x {4.0 0.0 18 ------- null}
h -t 0.09116 -s 8 -d 0 -p ack -e 40 -c 0 -i 55 -a 0 -x {4.0 0.0 -1 ------- null}
- -t 0.09216 -s 0 -d 8 -p tcp -e 1040 -c 0 -i 32 -a 0 -x {0.0 4.0 21 ------- null}
h -t 0.09216 -s 0 -d 8 -p tcp -e 1040 -c 0 -i 32 -a 0 -x {0.0 4.0 -1 ------- null}
r -t 0.09232 -s 8 -d 0 -p ack -e 40 -c 0 -i 55 -a 0 -x {4.0 0.0 18 ------- null}
+ -t 0.09232 -s 0 -d 8 -p tcp -e 1040 -c 0 -i 56 -a 0 -x {0.0 4.0 37 ------- null}
+ -t 0.09232 -s 0 -d 8 -p tcp -e 1040 -c 0 -i 57 -a 0 -x {0.0 4.0 38 ------- null}
d -t 0.09232 -s 0 -d 8 -p tcp -e 1040 -c 0 -i 57 -a 0 -x {0.0 4.0 38 ------- null}
r -t 0.09316 -s 0 -d 8 -p tcp -e 1040 -c 0 -i 30 -a 0 -x {0.0 4.0 20 ------- null}
+ -t 0.09316 -s 8 -d 4 -p tcp -e 1040 -c 0 -i 30 -a 0 -x {0.0 4.0 20 ------- null}